7
EPS_SCF=0.00000100 energy=-670.06878768955676 units=gap_units Integrated_spin_density=0.00001924 opt_dir=/home/tks32/dft_pbe/apr_8_opt_fragments_subset/singlepoint_5_CH3OH time=0.00000000 free_energy=-670.06878769 cutoff=8.00000000 nneightol=1.20000000 pbc="T T T" Lattice="13.00000000       0.00000000       0.00000000       0.00000000       9.00000000       0.00000000       0.00000000       0.00000000       9.00000000" Properties=species:S:1:pos:R:3:momenta:R:3:forces:R:3:Z:I:1:map_shift:I:3:n_neighb:I:1:force:R:3:local_energy:R:1:gap_var:R:1:gap_variance_gradient:R:3
C              -0.85170330      0.30253923      0.00463343      5.45576389     -0.78295391     -0.42330267     -0.12734795     -0.05430427     -0.00006388       6       0       0       0      12     -0.12734797     -0.05430433     -0.00006393   -155.22920908      0.00318012      0.00225068     -0.00114359     -0.00004332
O              -0.23928017     -0.99555437     -0.00239197      6.08037964      1.18098515     -0.51859695     -0.37016440      0.17051029      0.01590349       8       0       0       0      12     -0.37016421      0.17051024      0.01590349   -437.70340651      0.00458390      0.00606563      0.00258297     -0.00068999
H              -1.93557585      0.13626839      0.02907194     -0.04505419      0.01870235      0.27550326     -0.14037653      0.17003808      0.00340453       1       0       0       0      13     -0.14037652      0.17003809      0.00340451    -16.06612243      0.00326814      0.00082746     -0.00048944     -0.00003205
H               0.72321841     -0.86855210     -0.02397487      0.87220168     -0.41663278      0.71450882      0.59833135     -0.25716188     -0.03308861       1       0       0       0      12      0.59833115     -0.25716187     -0.03308860    -15.23775568      0.00669922     -0.00504971      0.00081005      0.00097226
H              -0.57174008      0.89244562      0.89290117      0.63788730     -0.13487010     -0.04519662      0.07899639     -0.06650139      0.08263577       1       0       0       0      15      0.07899642     -0.06650133      0.08263587    -15.89439689      0.00321213      0.00184937     -0.00118747     -0.00152032
H              -0.61083911      0.88370095     -0.90069729      0.06259361      0.13476928     -0.00291584      0.06889960     -0.07351054     -0.07606432       1       0       0       0      15      0.06889960     -0.07351051     -0.07606437    -15.89075025      0.00316167      0.00095124     -0.00084913      0.00133826
H               3.48592011     -0.35084770      0.00045760     -0.36793659      0.00000000      0.00000000     -0.10833847      0.11092971      0.00727303       1       0       0       0       7     -0.10833847      0.11092971      0.00727303    -14.04714685      0.00406496     -0.00689467      0.00027662     -0.00002483
7
EPS_SCF=0.00000100 energy=-670.04121324014886 units=gap_units Integrated_spin_density=0.00001924 opt_dir=/home/tks32/dft_pbe/apr_8_opt_fragments_subset/singlepoint_5_CH3OH time=1.00000000 free_energy=-670.04236253 cutoff=8.00000000 nneightol=1.20000000 pbc="T T T" Lattice="13.00000000       0.00000000       0.00000000       0.00000000       9.00000000       0.00000000       0.00000000       0.00000000       9.00000000" Properties=species:S:1:pos:R:3:momenta:R:3:forces:R:3:Z:I:1:map_shift:I:3:n_neighb:I:1:force:R:3:local_energy:R:1:gap_var:R:1:gap_variance_gradient:R:3
C              -0.83215776      0.30434309      0.00105419      0.60541121     -0.74998533     -0.29786063     -1.16895704      0.04965002      0.25425372       6       0       0       0      12     -1.11179163     -0.28615982      0.06122462   -155.26463946      0.00327603      0.00630084     -0.00163616     -0.00014709
O              -0.22491070     -0.99600462     -0.02391504      0.17932296      1.08621745     -0.58428125      1.16248378     -0.04453088     -0.09334345       8       0       0       0      12     -1.72095257      0.02826965     -0.02877899   -437.65909748      0.00463260      0.00752916      0.00141599      0.00103626
H              -1.95187183      0.13937142      0.03227913     -0.37059482      0.11145640      0.28244096      1.21037740      0.25414935     -0.08043303       1       0       0       0      13      1.02420332      0.33451854     -0.03990595    -16.07314670      0.00324025     -0.00130682     -0.00060900      0.00000103
H               0.71547254     -0.89586552      0.00525866      0.42679671     -0.45185919      0.71915281     -1.25952584     -0.20191175     -0.07710776       1       0       0       0      12      1.82671789     -0.11177750      0.04903645    -15.23433598      0.00668633     -0.00666933      0.00166682     -0.00128977
H              -0.54821844      0.88981603      0.88766134      0.22061079     -0.12014507     -0.04133542      0.07569801     -0.00256622      0.07133197       1       0       0       0      15      0.10200624     -0.08822561      0.15944135    -15.86674564      0.00338090      0.00350276     -0.00118544     -0.00133821
H              -0.59715672      0.88795892     -0.89816167     -0.31490715      0.11583132     -0.04430264      0.19507674     -0.25054890     -0.06905611       1       0       0       0      15      0.08526459     -0.03569264     -0.20011213    -15.88133731      0.00327535      0.00315254     -0.00123399      0.00138620
H               3.43884292     -0.32961932     -0.00417662     -0.74663970      0.00848441     -0.03381383     -0.21515305      0.19575838     -0.00564535       1       0       0       0       7     -0.20544783      0.15906738     -0.00090534    -14.06191067      0.00444766     -0.01250915      0.00158179      0.00035156
7
EPS_SCF=0.00000100 energy=-669.98007761160056 units=gap_units Integrated_spin_density=0.00001924 opt_dir=/home/tks32/dft_pbe/apr_8_opt_fragments_subset/singlepoint_5_CH3OH time=2.00000000 free_energy=-669.92642817 cutoff=8.00000000 nneightol=1.20000000 pbc="T T T" Lattice="13.00000000       0.00000000       0.00000000       0.00000000       9.00000000       0.00000000       0.00000000       0.00000000       9.00000000" Properties=species:S:1:pos:R:3:momenta:R:3:forces:R:3:Z:I:1:map_shift:I:3:n_neighb:I:1:force:R:3:local_energy:R:1:gap_var:R:1:gap_variance_gradient:R:3
C              -0.81504603      0.30572193     -0.00261160      0.40784524     -0.66489645     -0.35241116     -1.64099982      0.27523659      0.46399183       6       0       0       0      12     -1.64299016     -0.46469766      0.12670209   -155.27314829      0.00343772      0.00929512     -0.00206458     -0.00023603
O              -0.21049560     -0.99651424     -0.04586876      0.36970388      1.11225934     -0.44399823      2.18965154     -0.40889963     -0.04987043       8       0       0       0      12     -3.14755113     -0.03759981     -0.23475822   -437.60757562      0.00464608      0.00985741      0.00042997      0.00313916
H              -1.96160518      0.14156271      0.03495590     -0.23792528      0.06958833      0.22582726      1.94182664      0.24376188     -0.15988214       1       0       0       0      13      1.72952798      0.42958118     -0.07806668    -16.06444646      0.00324371     -0.00289687     -0.00065423      0.00003296
H               0.70879752     -0.91986048      0.03574669      0.25243030     -0.43434371      0.68875403     -2.43423291     -0.00096747     -0.30709959       1       0       0       0      12      3.17093419     -0.02207461      0.28601405    -15.22225852      0.00666815     -0.00823569      0.00246537     -0.00395959
H              -0.52729688      0.88748351      0.88363367      0.22646736     -0.14271661     -0.03543513      0.05866101      0.08892290      0.02005654       1       0       0       0      15      0.13318544     -0.11163320      0.20469618    -15.84941626      0.00357314      0.00363383     -0.00074049     -0.00093456
H              -0.58611112      0.89272941     -0.89653799     -0.28655100      0.04142862     -0.05436858      0.31956868     -0.45221119      0.04255273       1       0       0       0      15      0.11171746     -0.00067033     -0.29722482    -15.88058424      0.00343357      0.00446786     -0.00137947      0.00133512
H               3.39175730     -0.31112283     -0.00931792     -0.73197050      0.01868047     -0.02836819     -0.43447513      0.25415692     -0.00974894       1       0       0       0       7     -0.35482378      0.20709442     -0.00736260    -14.08264822      0.00492462     -0.01612168      0.00194343      0.00062294
7
EPS_SCF=0.00000100 energy=-669.93599810290607 units=gap_units Integrated_spin_density=0.00001924 opt_dir=/home/tks32/dft_pbe/apr_8_opt_fragments_subset/singlepoint_5_CH3OH time=3.00000000 free_energy=-669.86342740 cutoff=8.00000000 nneightol=1.20000000 pbc="T T T" Lattice="13.00000000       0.00000000       0.00000000       0.00000000       9.00000000       0.00000000       0.00000000       0.00000000       9.00000000" Properties=species:S:1:pos:R:3:momenta:R:3:forces:R:3:Z:I:1:map_shift:I:3:n_neighb:I:1:force:R:3:local_energy:R:1:gap_var:R:1:gap_variance_gradient:R:3
C              -0.80217657      0.30629465     -0.00650438      0.24206383     -0.66818567     -0.23142061     -1.73376804      0.54086872      0.71512896       6       0       0       0      12     -1.76026449     -0.56089050      0.19207963   -155.26784080      0.00360819      0.01057804     -0.00234728     -0.00030209
O              -0.19529531     -0.99690880     -0.06870810      0.63544674      1.10736623     -0.40817199      2.46118348     -0.90004006     -0.01518832       8       0       0       0      12     -4.41368206     -0.00560268     -0.60191159   -437.56111510      0.00464049      0.01276310     -0.00011901      0.00551973
H              -1.96020188      0.14164447      0.03635744     -0.01826064      0.07331815      0.18538303      2.15571171      0.17102914     -0.20894337       1       0       0       0      13      1.98877177      0.44770855     -0.10418537    -16.05607104      0.00324698     -0.00352805     -0.00062538      0.00004998
H               0.70420983     -0.93685912      0.06920600     -0.06159485     -0.41842329      0.60761589     -2.68779689      0.23758222     -0.53202732       1       0       0       0      12      4.38059659      0.00652538      0.68161207    -15.20162882      0.00662879     -0.00929772      0.00303500     -0.00692928
H              -0.51140441      0.88560009      0.88180870      0.23756117     -0.11314631     -0.05205079     -0.02843754      0.23700937     -0.02803200       1       0       0       0      15      0.15164711     -0.14780945      0.18951052    -15.84454802      0.00372279      0.00286165     -0.00008372     -0.00047855
H              -0.57975837      0.89855774     -0.89636367     -0.23199520     -0.00887299     -0.06046480      0.45033275     -0.54749018      0.08728579       1       0       0       0      15      0.15083260      0.01710147     -0.34149909    -15.89313800      0.00358193      0.00480511     -0.00133060      0.00122403
H               3.34462672     -0.29832904     -0.01579599     -0.80322104      0.02794387     -0.04089073     -0.61722546      0.26104079     -0.01822374       1       0       0       0       7     -0.49790152      0.24296722     -0.01560616    -14.11165633      0.00541157     -0.01818212      0.00147099      0.00091617
7
EPS_SCF=0.00000100 energy=-669.94336547666501 units=gap_units Integrated_spin_density=0.00001924 opt_dir=/home/tks32/dft_pbe/apr_8_opt_fragments_subset/singlepoint_5_CH3OH time=4.00000000 free_energy=-669.92141924 cutoff=8.00000000 nneightol=1.20000000 pbc="T T T" Lattice="13.00000000       0.00000000       0.00000000       0.00000000       9.00000000       0.00000000       0.00000000       0.00000000       9.00000000" Properties=species:S:1:pos:R:3:momenta:R:3:forces:R:3:Z:I:1:map_shift:I:3:n_neighb:I:1:force:R:3:local_energy:R:1:gap_var:R:1:gap_variance_gradient:R:3
C              -0.79417880      0.30601123     -0.01065279      0.09695241     -0.46829551     -0.05211312     -1.49988412      0.93600013      0.87179218       6       0       0       0      12     -1.52642152     -0.55761202      0.25140391   -155.25596118      0.00374543      0.01038045     -0.00250425     -0.00034544
O              -0.17940746     -0.99708237     -0.09267346      0.79128003      0.88555330     -0.50905168      2.06219386     -1.44101877     -0.07527736       8       0       0       0      12     -5.14711872      0.11641923     -1.03471152   -437.53085879      0.00462941      0.01548531     -0.00021903      0.00788688
H              -1.94548851      0.13976142      0.03635659      0.21668213      0.08299046      0.13480893      1.98089256      0.04138260     -0.20245465       1       0       0       0      13      1.85792593      0.39030837     -0.11444282    -16.05600482      0.00322946     -0.00299833     -0.00052044      0.00004702
H               0.70143777     -0.94725299      0.10601043     -0.34263919     -0.36304526      0.51056024     -2.27610134      0.45223242     -0.62984087       1       0       0       0      11      5.06722982     -0.01620226      1.14413069    -15.17987376      0.00654147     -0.00957470      0.00334951     -0.00988723
H              -0.50094530      0.88423046      0.88246494      0.21550134     -0.07597154     -0.03326313     -0.24057371      0.39705175     -0.07049895       1       0       0       0      14      0.13993153     -0.20085131      0.10187910    -15.85122195      0.00381299      0.00185112      0.00054638     -0.00014910
H              -0.57885835      0.90555299     -0.89784479     -0.14069241     -0.07464127     -0.04621662      0.56097160     -0.60564839      0.15536527       1       0       0       0      15      0.19283119      0.01102714     -0.32257864    -15.92020617      0.00369084      0.00466863     -0.00130419      0.00122232
H               3.29744064     -0.29122073     -0.02366091     -0.83708431      0.01340981     -0.00472463     -0.58749885      0.22000027     -0.04908562       1       0       0       0       7     -0.58437824      0.25691085     -0.02568073    -14.14923881      0.00589149     -0.01981248      0.00065202      0.00122555
7
EPS_SCF=0.00000100 energy=-669.98900547605410 units=gap_units Integrated_spin_density=0.00001924 opt_dir=/home/tks32/dft_pbe/apr_8_opt_fragments_subset/singlepoint_5_CH3OH time=5.00000000 free_energy=-670.02465497 cutoff=8.00000000 nneightol=1.20000000 pbc="T T T" Lattice="13.00000000       0.00000000       0.00000000       0.00000000       9.00000000       0.00000000       0.00000000       0.00000000       9.00000000" Properties=species:S:1:pos:R:3:momenta:R:3:forces:R:3:Z:I:1:map_shift:I:3:n_neighb:I:1:force:R:3:local_energy:R:1:gap_var:R:1:gap_variance_gradient:R:3
C              -0.78932093      0.30532947     -0.01497546     -0.01055651     -0.24397781      0.15214617     -1.04321306      1.12087678      0.95255800       6       0       0       0      12     -1.02390744     -0.47872587      0.29799833   -155.23582825      0.00384096      0.00922723     -0.00254391     -0.00037577
O              -0.16276382     -0.99646775     -0.11761917      0.88302482      0.70608064     -0.59884458      1.03278913     -1.91114048     -0.28736088       8       0       0       0      12     -5.34510869      0.28603064     -1.41864446   -437.51640250      0.00462410      0.01763690     -0.00001528      0.00984912
H              -1.92162925      0.13653470      0.03564016      0.36769236      0.03634687      0.09026527      1.41385443     -0.09799378     -0.14617224       1       0       0       0      13      1.42419812      0.27372847     -0.10775645    -16.05865381      0.00320575     -0.00171775     -0.00035870      0.00003371
H               0.69902604     -0.95475596      0.14488930     -0.47288385     -0.30471476      0.48093729     -1.38005779      0.58717715     -0.51881554       1       0       0       0      11      5.19729676     -0.06965517      1.55778622    -15.16329668      0.00639681     -0.00924216      0.00348858     -0.01236838
H              -0.49363422      0.88333368      0.88457129      0.14724989     -0.04209193     -0.05149219     -0.42520042      0.62474879      0.00325695       1       0       0       0      14      0.09532864     -0.25564382     -0.02727585    -15.86427800      0.00385770      0.00079899      0.00108964      0.00001916
H              -0.58192274      0.91334142     -0.90038247     -0.07521088     -0.18029304     -0.03109141      0.63179461     -0.49028555      0.08442848       1       0       0       0      15      0.22773686     -0.00681330     -0.26678067    -15.95635298      0.00376398      0.00442928     -0.00142247      0.00141605
H               3.25024491     -0.28731555     -0.03212364     -0.83931582      0.02865003     -0.04192054     -0.22996690      0.16661709     -0.08789477       1       0       0       0       7     -0.57554424      0.25107903     -0.03532712    -14.19419324      0.00639736     -0.02113249     -0.00023786      0.00142611
7
EPS_SCF=0.00000100 energy=-670.03463969116433 units=gap_units Integrated_spin_density=0.00001924 opt_dir=/home/tks32/dft_pbe/apr_8_opt_fragments_subset/singlepoint_5_CH3OH time=6.00000000 free_energy=-670.07476078 cutoff=8.00000000 nneightol=1.20000000 pbc="T T T" Lattice="13.00000000       0.00000000       0.00000000       0.00000000       9.00000000       0.00000000       0.00000000       0.00000000       9.00000000" Properties=species:S:1:pos:R:3:momenta:R:3:forces:R:3:Z:I:1:map_shift:I:3:n_neighb:I:1:force:R:3:local_energy:R:1:gap_var:R:1:gap_variance_gradient:R:3
C              -0.78522996      0.30473740     -0.01942893     -0.09931723     -0.14189494      0.24212349     -0.02221506      1.19881486      1.02986603       6       0       0       0      12     -0.39481300     -0.36799049      0.33072894   -155.20597075      0.00389670      0.00751601     -0.00247750     -0.00039930
O              -0.14447850     -0.99417397     -0.14322242      1.01896820      0.55630284     -0.62722857     -0.20543439     -2.16837062     -0.67274042       8       0       0       0      12     -5.26205622      0.45312401     -1.70149329   -437.50799715      0.00464409      0.01980158      0.00045013      0.01125985
H              -1.89514590      0.13187439      0.03467149      0.43815765      0.02858902      0.12535246      0.33411776     -0.24323899     -0.05505798       1       0       0       0      13      0.82842703      0.13041195     -0.08699824    -16.05597429      0.00319337     -0.00029304     -0.00017929      0.00001850
H               0.69579233     -0.96189828      0.18486921     -0.57315523     -0.22281661      0.42267672     -0.18171057      0.57680987     -0.14925659       1       0       0       0      11      4.94557207     -0.14469707      1.86580272    -15.15179075      0.00621601     -0.00857019      0.00356994     -0.01415322
H              -0.48725339      0.88276420      0.88689223      0.04616807      0.02127070     -0.05067151     -0.54886834      0.77418629      0.01127514       1       0       0       0      14      0.02379508     -0.29656945     -0.15801172    -15.87730982      0.00387239      0.00050921      0.00133147     -0.00010273
H              -0.58676555      0.92162081     -0.90301486     -0.02248663     -0.28845300     -0.05493804      0.55387060     -0.23027721     -0.05748630       1       0       0       0      15      0.24266943     -0.01935170     -0.21018897    -15.99413685      0.00381219      0.00421313     -0.00166799      0.00175605
H               3.20308097     -0.28492454     -0.04076672     -0.80833483      0.04700201     -0.05731455      0.07024001      0.09207580     -0.10659988       1       0       0       0       7     -0.38359439      0.24507274     -0.03983943    -14.24146008      0.00700036     -0.02317671     -0.00102676      0.00162085
7
EPS_SCF=0.00000100 energy=-670.05938143407968 units=gap_units Integrated_spin_density=0.00001924 opt_dir=/home/tks32/dft_pbe/apr_8_opt_fragments_subset/singlepoint_5_CH3OH time=7.00000000 free_energy=-670.01747785 cutoff=8.00000000 nneightol=1.20000000 pbc="T T T" Lattice="13.00000000       0.00000000       0.00000000       0.00000000       9.00000000       0.00000000       0.00000000       0.00000000       9.00000000" Properties=species:S:1:pos:R:3:momenta:R:3:forces:R:3:Z:I:1:map_shift:I:3:n_neighb:I:1:force:R:3:local_energy:R:1:gap_var:R:1:gap_variance_gradient:R:3
C              -0.78049225      0.30454107     -0.02395254     -0.04233945      0.01869316      0.44237282      1.34955858      1.22896122      0.87078848       6       0       0       0      12      0.24980616     -0.25937492      0.35426330   -155.16925106      0.00391465      0.00619988     -0.00242625     -0.00042405
O              -0.12415784     -0.98972210     -0.16908623      0.81485428      0.36009257     -0.80902528     -1.23538670     -2.19958970     -1.15411774       8       0       0       0      12     -4.95311834      0.61766538     -1.86717262   -437.49856351      0.00468173      0.02021158      0.00065529      0.01205929
H              -1.86972237      0.12599482      0.03365016      0.49052446     -0.03664558      0.15399070     -1.21863835     -0.37214110      0.09641643       1       0       0       0      13      0.21149316     -0.01129085     -0.05961451    -16.04641881      0.00319247      0.00096393      0.00000335      0.00000007
H               0.69077558     -0.97081777      0.22514929     -0.47155674     -0.15261112      0.47160435      0.94766465      0.41880846      0.39344721       1       0       0       0      11      4.46744122     -0.23425644      2.05166225    -15.14449102      0.00602749     -0.00773730      0.00367902     -0.01520077
H              -0.48047822      0.88243271      0.88873193     -0.01409878      0.08236108     -0.09615703     -0.54021470      0.87538483      0.03901270       1       0       0       0      14     -0.06270155     -0.31904624     -0.26949678    -15.88771874      0.00389422      0.00091258      0.00130154     -0.00045595
H              -0.59190493      0.93018263     -0.90514575      0.02950822     -0.29464013     -0.08961615      0.33491975      0.04699573     -0.15184298       1       0       0       0      15      0.22661639     -0.01939495     -0.17039802    -16.02912009      0.00383933      0.00394153     -0.00195538      0.00215253
H               3.15598003     -0.28261136     -0.04934685     -0.80689199      0.02275002     -0.07316941      0.36209678      0.00158056     -0.09370410       1       0       0       0       7     -0.13953705      0.22569802     -0.03924361    -14.28381821      0.00772165     -0.02449221     -0.00125756      0.00186888
7
EPS_SCF=0.00000100 energy=-670.06512837934883 units=gap_units Integrated_spin_density=0.00001924 opt_dir=/home/tks32/dft_pbe/apr_8_opt_fragments_subset/singlepoint_5_CH3OH time=8.00000000 free_energy=-669.89044278 cutoff=8.00000000 nneightol=1.20000000 pbc="T T T" Lattice="13.00000000       0.00000000       0.00000000       0.00000000       9.00000000       0.00000000       0.00000000       0.00000000       9.00000000" Properties=species:S:1:pos:R:3:momenta:R:3:forces:R:3:Z:I:1:map_shift:I:3:n_neighb:I:1:force:R:3:local_energy:R:1:gap_var:R:1:gap_variance_gradient:R:3
C              -0.77399637      0.30497195     -0.02846863      0.21206286      0.10713370      0.48936341      2.50806108      1.19439908      0.56646539       6       0       0       0      12      0.76613736     -0.19217070      0.37970917   -155.13569865      0.00393397      0.00546633     -0.00239013     -0.00045607
O              -0.10137157     -0.98272427     -0.19466555      0.60921709      0.29093217     -0.92877475     -1.44929201     -2.24442891     -1.41883438       8       0       0       0      11     -4.44512416      0.78249172     -1.93567270   -437.48688914      0.00471492      0.01865395      0.00042883      0.01233250
H              -1.84843456      0.11886930      0.03267860      0.31079649     -0.13939221      0.14347273     -2.73549180     -0.39542731      0.28151967       1       0       0       0      13     -0.25296339     -0.11840008     -0.03190203    -16.03449628      0.00319352      0.00181866      0.00017460     -0.00001953
H               0.68334524     -0.98276707      0.26487944     -0.40906827     -0.12137689      0.53110908      1.38271707      0.26066927      0.76442265       1       0       0       0      11      3.89866521     -0.32814186      2.13712933    -15.13993823      0.00586238     -0.00686687      0.00384328     -0.01562053
H              -0.47246669      0.88231329      0.88958084     -0.06519827      0.15674865     -0.08242729     -0.44567724      0.93664890      0.09336567       1       0       0       0      14     -0.16306763     -0.32020563     -0.34495645    -15.89382082      0.00392147      0.00053839      0.00147330     -0.00060947
H              -0.59607696      0.93887492     -0.90629911      0.05415633     -0.29733045     -0.05864098      0.06131274      0.31686819     -0.22495594       1       0       0       0      14      0.18233993      0.00017509     -0.16391135    -16.05746996      0.00384506      0.00375525     -0.00226525      0.00255626
H               3.10900090     -0.27953812     -0.05770559     -0.71196623      0.00328503     -0.09410219      0.67837017     -0.06872922     -0.06198306       1       0       0       0       7      0.01401268      0.17625147     -0.04039597    -14.31681530      0.00848741     -0.02336570     -0.00126464      0.00181685
7
EPS_SCF=0.00000100 energy=-670.06358038939300 units=gap_units Integrated_spin_density=0.00001924 opt_dir=/home/tks32/dft_pbe/apr_8_opt_fragments_subset/singlepoint_5_CH3OH time=9.00000000 free_energy=-669.80819030 cutoff=8.00000000 nneightol=1.20000000 pbc="T T T" Lattice="13.00000000       0.00000000       0.00000000       0.00000000       9.00000000       0.00000000       0.00000000       0.00000000       9.00000000" Properties=species:S:1:pos:R:3:momenta:R:3:forces:R:3:Z:I:1:map_shift:I:3:n_neighb:I:1:force:R:3:local_energy:R:1:gap_var:R:1:gap_variance_gradient:R:3
C              -0.76504732      0.30616785     -0.03288816      0.25296756      0.13958671      0.50205644      2.80213158      1.07272115      0.39312570       6       0       0       0      12      0.95384224     -0.19173916      0.42081682   -155.11631001      0.00395368      0.00360192     -0.00207245     -0.00048798
O              -0.07570727     -0.97289412     -0.21932508      0.69648803      0.07979719     -0.99682625     -1.05775927     -2.27189670     -1.37276847       8       0       0       0      11     -3.88125612      0.92017298     -1.94665357   -437.47586879      0.00472249      0.01533500     -0.00027022      0.01221953
H              -1.83344199      0.11020380      0.03179081      0.05966739     -0.13288842      0.20443077     -3.39498956     -0.35205006      0.37457447       1       0       0       0      13     -0.42055193     -0.16064019     -0.01195095    -16.02712539      0.00318620      0.00211400      0.00031472     -0.00003263
H               0.67327316     -0.99796378      0.30319346     -0.29712038     -0.10076583      0.62230580      1.22817775      0.17955713      0.85955409       1       0       0       0      11      3.32594948     -0.41860477      2.15934157    -15.13720772      0.00573831     -0.00600032      0.00405708     -0.01559645
H              -0.46292143      0.88245239      0.88914914     -0.08642346      0.25570079     -0.08442992     -0.29402128      0.90937968      0.12947721       1       0       0       0      14     -0.26491944     -0.30217032     -0.37559378    -15.89466753      0.00394191     -0.00066237      0.00187451     -0.00048439
H              -0.59840531      0.94760892     -0.90617940      0.02112068     -0.26838729     -0.10274659     -0.14880187      0.56234619     -0.35277543       1       0       0       0      14      0.12534107      0.04252829     -0.20032438    -16.07637726      0.00384947      0.00426009     -0.00274736      0.00303426
H               3.06225017     -0.27557505     -0.06574078     -0.64669982      0.02695685     -0.14479025      0.86526264     -0.10005738     -0.03118757       1       0       0       0       7      0.16159471      0.11045317     -0.04563570    -14.33602369      0.00912891     -0.01864833     -0.00115628      0.00134765
7
EPS_SCF=0.00000100 energy=-670.05809083518932 units=gap_units Integrated_spin_density=0.00001924 opt_dir=/home/tks32/dft_pbe/apr_8_opt_fragments_subset/singlepoint_5_CH3OH time=10.00000000 free_energy=-669.84761833 cutoff=8.00000000 nneightol=1.20000000 pbc="T T T" Lattice="13.00000000       0.00000000       0.00000000       0.00000000       9.00000000       0.00000000       0.00000000       0.00000000       9.00000000" Properties=species:S:1:pos:R:3:momenta:R:3:forces:R:3:Z:I:1:map_shift:I:3:n_neighb:I:1:force:R:3:local_energy:R:1:gap_var:R:1:gap_variance_gradient:R:3
C              -0.75360334      0.30817054     -0.03712225      0.50167626      0.24066968      0.47538861      1.77010155      0.89548828      0.41943903       6       0       0       0      12      0.72548488     -0.26528795      0.48536164   -155.11479029      0.00396177      0.00086786     -0.00149348     -0.00052659
O              -0.04726336     -0.96015582     -0.24240087      0.70939575     -0.11562789     -1.04656275     -0.11634876     -2.29149383     -0.80810805       8       0       0       0      12     -3.31836991      1.01169002     -1.91422420   -437.46868239      0.00468938      0.01105600     -0.00128259      0.01182528
H              -1.82517674      0.09961644      0.03100463     -0.27333333     -0.16629365      0.24585579     -2.62440417     -0.19181193      0.22801320       1       0       0       0      13     -0.25443999     -0.12149206     -0.00508556    -16.02691106      0.00316792      0.00184905      0.00040204     -0.00003354