7
EPS_SCF=0.00000100 energy=-670.06878768955676 units=gap_units Integrated_spin_density=0.00001924 opt_dir=/home/tks32/dft_pbe/apr_8_opt_fragments_subset/singlepoint_5_CH3OH time=0.00000000 free_energy=-670.06878769 cutoff=8.00000000 nneightol=1.20000000 pbc="T T T" Lattice="13.00000000       0.00000000       0.00000000       0.00000000       9.00000000       0.00000000       0.00000000       0.00000000       9.00000000" Properties=species:S:1:pos:R:3:momenta:R:3:forces:R:3:Z:I:1:map_shift:I:3:n_neighb:I:1:force:R:3:local_energy:R:1:gap_var:R:1:gap_variance_gradient:R:3
C              -0.85170330      0.30253923      0.00463343      5.45576389     -0.78295391     -0.42330267     -0.12734795     -0.05430427     -0.00006388       6       0       0       0      12     -0.12734797     -0.05430433     -0.00006393   -155.22920908      0.00318012      0.00225068     -0.00114359     -0.00004332
O              -0.23928017     -0.99555437     -0.00239197      6.08037964      1.18098515     -0.51859695     -0.37016440      0.17051029      0.01590349       8       0       0       0      12     -0.37016421      0.17051024      0.01590349   -437.70340651      0.00458390      0.00606563      0.00258297     -0.00068999
H              -1.93557585      0.13626839      0.02907194     -0.04505419      0.01870235      0.27550326     -0.14037653      0.17003808      0.00340453       1       0       0       0      13     -0.14037652      0.17003809      0.00340451    -16.06612243      0.00326814      0.00082746     -0.00048944     -0.00003205
H               0.72321841     -0.86855210     -0.02397487      0.87220168     -0.41663278      0.71450882      0.59833135     -0.25716188     -0.03308861       1       0       0       0      12      0.59833115     -0.25716187     -0.03308860    -15.23775568      0.00669922     -0.00504971      0.00081005      0.00097226
H              -0.57174008      0.89244562      0.89290117      0.63788730     -0.13487010     -0.04519662      0.07899639     -0.06650139      0.08263577       1       0       0       0      15      0.07899642     -0.06650133      0.08263587    -15.89439689      0.00321213      0.00184937     -0.00118747     -0.00152032
H              -0.61083911      0.88370095     -0.90069729      0.06259361      0.13476928     -0.00291584      0.06889960     -0.07351054     -0.07606432       1       0       0       0      15      0.06889960     -0.07351051     -0.07606437    -15.89075025      0.00316167      0.00095124     -0.00084913      0.00133826
H               3.48592011     -0.35084770      0.00045760     -0.36793659      0.00000000      0.00000000     -0.10833847      0.11092971      0.00727303       1       0       0       0       7     -0.10833847      0.11092971      0.00727303    -14.04714685      0.00406496     -0.00689467      0.00027662     -0.00002483
7
EPS_SCF=0.00000100 energy=-670.07407732080412 units=gap_units Integrated_spin_density=0.00001924 opt_dir=/home/tks32/dft_pbe/apr_8_opt_fragments_subset/singlepoint_5_CH3OH time=1.00000000 free_energy=-670.04236253 cutoff=8.00000000 nneightol=1.20000000 pbc="T T T" Lattice="13.00000000       0.00000000       0.00000000       0.00000000       9.00000000       0.00000000       0.00000000       0.00000000       9.00000000" Properties=species:S:1:pos:R:3:momenta:R:3:forces:R:3:Z:I:1:map_shift:I:3:n_neighb:I:1:force:R:3:local_energy:R:1:gap_var:R:1:gap_variance_gradient:R:3
C              -0.83675122      0.30128569     -0.00877750      0.60541121     -0.74998533     -0.29786063     -1.16895704      0.04965002      0.25425372       6       0       0       0      12     -0.88054244      0.06802480      0.21622899   -155.20999202      0.00328253      0.00557628     -0.00157691     -0.00020945
O              -0.22526517     -0.98320630     -0.02743351      0.17932296      1.08621745     -0.58428125      1.16248378     -0.04453088     -0.09334345       8       0       0       0      12      0.36893034     -0.13412072     -0.11257643   -437.67036809      0.00456399      0.00135014      0.00009487      0.00164338
H              -1.95531441      0.14553355      0.03601321     -0.37059482      0.11145640      0.28244096      1.21037740      0.25414935     -0.08043303       1       0       0       0      13      0.92087359      0.22405874     -0.05243339    -16.06208483      0.00327796     -0.00192270      0.00005381     -0.00001845
H               0.76268123     -0.90461868      0.02546981      0.42679671     -0.45185919      0.71915281     -1.25952584     -0.20191175     -0.07710776       1       0       0       0      12     -0.43393313     -0.15113826     -0.03552803    -15.31130635      0.00656599      0.00389428      0.00295165     -0.00223619
H              -0.54303087      0.87582261      0.88592290      0.22061079     -0.12014507     -0.04133542      0.07569801     -0.00256622      0.07133197       1       0       0       0      15      0.06443624      0.00312554      0.04848213    -15.81870320      0.00344548      0.00346459     -0.00107842     -0.00125352
H              -0.62564667      0.90522937     -0.90848881     -0.31490715      0.11583132     -0.04430264      0.19507674     -0.25054890     -0.06905611       1       0       0       0      15      0.17843802     -0.19904901     -0.05963103    -15.94482539      0.00321332      0.00273774     -0.00115859      0.00132136
H               3.42332711     -0.34004625     -0.00270609     -0.74663970      0.00848441     -0.03381383     -0.21515305      0.19575838     -0.00564535       1       0       0       0       7     -0.21820262      0.18909891     -0.00454224    -14.05679744      0.00458157     -0.01510033      0.00071359      0.00075287
7
EPS_SCF=0.00000100 energy=-670.03939524775512 units=gap_units Integrated_spin_density=0.00001924 opt_dir=/home/tks32/dft_pbe/apr_8_opt_fragments_subset/singlepoint_5_CH3OH time=2.00000000 free_energy=-669.92642817 cutoff=8.00000000 nneightol=1.20000000 pbc="T T T" Lattice="13.00000000       0.00000000       0.00000000       0.00000000       9.00000000       0.00000000       0.00000000       0.00000000       9.00000000" Properties=species:S:1:pos:R:3:momenta:R:3:forces:R:3:Z:I:1:map_shift:I:3:n_neighb:I:1:force:R:3:local_energy:R:1:gap_var:R:1:gap_variance_gradient:R:3
C              -0.82243879      0.30014071     -0.02121328      0.40784524     -0.66489645     -0.35241116     -1.64099982      0.27523659      0.46399183       6       0       0       0      12     -1.27413891      0.27038544      0.43550230   -155.17661518      0.00348339      0.00778662     -0.00200094     -0.00039969
O              -0.21084384     -0.97097157     -0.05194709      0.36970388      1.11225934     -0.44399823      2.18965154     -0.40889963     -0.04987043       8       0       0       0      12      1.04970280     -0.51557554     -0.15165264   -437.62730569      0.00448528     -0.00086464     -0.00124570      0.00347999
H              -1.96689213      0.15439715      0.04223439     -0.23792528      0.06958833      0.22582726      1.94182664      0.24376188     -0.15988214       1       0       0       0      13      1.54005460      0.21281052     -0.10468709    -16.04730445      0.00332425     -0.00388444      0.00050183     -0.00003940
H               0.79363428     -0.94061067      0.07279393      0.25243030     -0.43434371      0.68875403     -2.43423291     -0.00096747     -0.30709959       1       0       0       0      12     -1.24212852      0.01506347     -0.16821746    -15.34561903      0.00655625      0.00945179      0.00420638     -0.00480816
H              -0.51482930      0.85976934      0.87961040      0.22646736     -0.14271661     -0.03543513      0.05866101      0.08892290      0.02005654       1       0       0       0      15      0.04952320      0.10134143      0.01565317    -15.76425906      0.00371130      0.00266558     -0.00038121     -0.00065986
H              -0.63854345      0.92436123     -0.91564526     -0.28655100      0.04142862     -0.05436858      0.31956868     -0.45221119      0.04255273       1       0       0       0      15      0.30454713     -0.33078708     -0.01639235    -15.99230630      0.00329550      0.00425878     -0.00136023      0.00134780
H               3.35991322     -0.32708619     -0.00583308     -0.73197050      0.01868047     -0.02836819     -0.43447513      0.25415692     -0.00974894       1       0       0       0       7     -0.42756030      0.24676174     -0.01020593    -14.08598554      0.00520175     -0.01941369      0.00027988      0.00107933
7
EPS_SCF=0.00000100 energy=-670.02402479854220 units=gap_units Integrated_spin_density=0.00001924 opt_dir=/home/tks32/dft_pbe/apr_8_opt_fragments_subset/singlepoint_5_CH3OH time=3.00000000 free_energy=-669.86342740 cutoff=8.00000000 nneightol=1.20000000 pbc="T T T" Lattice="13.00000000       0.00000000       0.00000000       0.00000000       9.00000000       0.00000000       0.00000000       0.00000000       9.00000000" Properties=species:S:1:pos:R:3:momenta:R:3:forces:R:3:Z:I:1:map_shift:I:3:n_neighb:I:1:force:R:3:local_energy:R:1:gap_var:R:1:gap_variance_gradient:R:3
C              -0.80942403      0.29935644     -0.03190850      0.24206383     -0.66818567     -0.23142061     -1.73376804      0.54086872      0.71512896       6       0       0       0      11     -1.34224637      0.50125040      0.63835569   -155.14376863      0.00370460      0.00833832     -0.00229443     -0.00060387
O              -0.19462761     -0.95882079     -0.07574746      0.63544674      1.10736623     -0.40817199      2.46118348     -0.90004006     -0.01518832       8       0       0       0      12      1.34744022     -0.93780587     -0.17346594   -437.57973716      0.00441635      0.00021346     -0.00104582      0.00469305
H              -1.96464470      0.16159241      0.04753325     -0.01826064      0.07331815      0.18538303      2.15571171      0.17102914     -0.20894337       1       0       0       0      13      1.72713093      0.14581246     -0.13711113    -16.03795181      0.00335879     -0.00458893      0.00082946     -0.00008467
H               0.81052073     -0.97420270      0.11621848     -0.06159485     -0.41842329      0.60761589     -2.68779689      0.23758222     -0.53202732       1       0       0       0      11     -1.54149739      0.20728051     -0.32383626    -15.35399168      0.00647357      0.01079437      0.00405652     -0.00629993
H              -0.48862241      0.84513201      0.87438568      0.23756117     -0.11314631     -0.05205079     -0.02843754      0.23700937     -0.02803200       1       0       0       0      13     -0.02463663      0.24154304     -0.00004679    -15.73453710      0.00389128      0.00075318      0.00042670     -0.00014239
H              -0.64846084      0.93914997     -0.92160823     -0.23199520     -0.00887299     -0.06046480      0.45033275     -0.54749018      0.08728579       1       0       0       0      15      0.43065556     -0.41511104      0.02043124    -16.03515044      0.00341659      0.00524423     -0.00153777      0.00151496
H               3.29525886     -0.31220734     -0.00887321     -0.80322104      0.02794387     -0.04089073     -0.61722546      0.26104079     -0.01822374       1       0       0       0       7     -0.59684632      0.25703050     -0.02432681    -14.13888799      0.00584390     -0.02075464     -0.00043465      0.00092286
7
EPS_SCF=0.00000100 energy=-670.05302842307947 units=gap_units Integrated_spin_density=0.00001924 opt_dir=/home/tks32/dft_pbe/apr_8_opt_fragments_subset/singlepoint_5_CH3OH time=4.00000000 free_energy=-669.92141924 cutoff=8.00000000 nneightol=1.20000000 pbc="T T T" Lattice="13.00000000       0.00000000       0.00000000       0.00000000       9.00000000       0.00000000       0.00000000       0.00000000       9.00000000" Properties=species:S:1:pos:R:3:momenta:R:3:forces:R:3:Z:I:1:map_shift:I:3:n_neighb:I:1:force:R:3:local_energy:R:1:gap_var:R:1:gap_variance_gradient:R:3
C              -0.79765398      0.29913233     -0.04030170      0.09695241     -0.46829551     -0.05211312     -1.49988412      0.93600013      0.87179218       6       0       0       0      11     -1.17313888      0.72234659      0.80808073   -155.11659186      0.00387193      0.00750407     -0.00244292     -0.00076298
O              -0.17655648     -0.94664477     -0.09890067      0.79128003      0.88555330     -0.50905168      2.06219386     -1.44101877     -0.07527736       8       0       0       0      12      1.18080422     -1.37333907     -0.25253375   -437.53760238      0.00439548      0.00371727      0.00036177      0.00548032
H              -1.94705587      0.16637200      0.05206677      0.21668213      0.08299046      0.13480893      1.98089256      0.04138260     -0.20245465       1       0       0       0      12      1.56465870      0.04700357     -0.14668554    -16.04126558      0.00335321     -0.00406134      0.00109192     -0.00015615
H               0.81123169     -1.00429900      0.15470240     -0.34263919     -0.36304526      0.51056024     -2.27610134      0.45223242     -0.62984087       1       0       0       0      11     -1.36663144      0.38218163     -0.40135572    -15.35029593      0.00627632      0.00962834      0.00306481     -0.00687134
H              -0.46551535      0.83255089      0.87050445      0.21550134     -0.07597154     -0.03326313     -0.24057371      0.39705175     -0.07049895       1       0       0       0      12     -0.17753464      0.41762238      0.01286550    -15.72456093      0.00395448     -0.00004574      0.00059602     -0.00028357
H              -0.65388975      0.94833585     -0.92612158     -0.14069241     -0.07464127     -0.04621662      0.56097160     -0.60564839      0.15536527       1       0       0       0      15      0.53158365     -0.41902737      0.03292924    -16.07643867      0.00356153      0.00563019     -0.00179016      0.00186896
H               3.22943975     -0.29544730     -0.01194967     -0.83708431      0.01340981     -0.00472463     -0.58749885      0.22000027     -0.04908562       1       0       0       0       7     -0.55974160      0.22321226     -0.05330046    -14.20627307      0.00658443     -0.02237279     -0.00088143      0.00072476
7
EPS_SCF=0.00000100 energy=-670.09527773552793 units=gap_units Integrated_spin_density=0.00001924 opt_dir=/home/tks32/dft_pbe/apr_8_opt_fragments_subset/singlepoint_5_CH3OH time=5.00000000 free_energy=-670.02465497 cutoff=8.00000000 nneightol=1.20000000 pbc="T T T" Lattice="13.00000000       0.00000000       0.00000000       0.00000000       9.00000000       0.00000000       0.00000000       0.00000000       9.00000000" Properties=species:S:1:pos:R:3:momenta:R:3:forces:R:3:Z:I:1:map_shift:I:3:n_neighb:I:1:force:R:3:local_energy:R:1:gap_var:R:1:gap_variance_gradient:R:3
C              -0.78684385      0.29979033     -0.04607546     -0.01055651     -0.24397781      0.15214617     -1.04321306      1.12087678      0.95255800       6       0       0       0      11     -0.77355033      0.90181255      0.92274717   -155.08866404      0.00394193      0.00554126     -0.00241906     -0.00081642
O              -0.15771390     -0.93493701     -0.12169616      0.88302482      0.70608064     -0.59884458      1.03278913     -1.91114048     -0.28736088       8       0       0       0      12      0.56836221     -1.76739616     -0.43764628   -437.49834987      0.00444151      0.00773806      0.00219829      0.00626709
H              -1.91558950      0.16877978      0.05606563      0.36769236      0.03634687      0.09026527      1.41385443     -0.09799378     -0.14617224       1       0       0       0      12      1.06137562     -0.07098097     -0.13253921    -16.05285061      0.00332165     -0.00245800      0.00127339     -0.00027484
H               0.79717102     -1.03166830      0.18818040     -0.47288385     -0.30471476      0.48093729     -1.38005779      0.58717715     -0.51881554       1       0       0       0      11     -0.85305062      0.49925619     -0.33618082    -15.34082624      0.00603238      0.00730993      0.00223060     -0.00721631
H              -0.44636554      0.82271428      0.86810173      0.14724989     -0.04209193     -0.05149219     -0.42520042      0.62474879      0.00325695       1       0       0       0      12     -0.33983245      0.59325077      0.04679464    -15.73043949      0.00400721     -0.00032183      0.00030262     -0.00096576
H              -0.65369171      0.95185803     -0.92919840     -0.07521088     -0.18029304     -0.03109141      0.63179461     -0.49028555      0.08442848       1       0       0       0      15      0.56666868     -0.33372296      0.01590700    -16.11863529      0.00369986      0.00546464     -0.00220736      0.00244351
H               3.16303349     -0.27653711     -0.01537775     -0.83931582      0.02865003     -0.04192054     -0.22996690      0.16661709     -0.08789477       1       0       0       0       7     -0.22997312      0.17778059     -0.07908250    -14.26551220      0.00759289     -0.02327406     -0.00137848      0.00056273
7
EPS_SCF=0.00000100 energy=-670.10619096561493 units=gap_units Integrated_spin_density=0.00001924 opt_dir=/home/tks32/dft_pbe/apr_8_opt_fragments_subset/singlepoint_5_CH3OH time=6.00000000 free_energy=-670.07476078 cutoff=8.00000000 nneightol=1.20000000 pbc="T T T" Lattice="13.00000000       0.00000000       0.00000000       0.00000000       9.00000000       0.00000000       0.00000000       0.00000000       9.00000000" Properties=species:S:1:pos:R:3:momenta:R:3:forces:R:3:Z:I:1:map_shift:I:3:n_neighb:I:1:force:R:3:local_energy:R:1:gap_var:R:1:gap_variance_gradient:R:3
C              -0.77649129      0.30144434     -0.04937578     -0.09931723     -0.14189494      0.24212349     -0.02221506      1.19881486      1.02986603       6       0       0       0      11     -0.04601205      1.00815461      0.96524209   -155.05390524      0.00398221      0.00452148     -0.00250256     -0.00076558
O              -0.13853025     -0.92370188     -0.14483425      1.01896820      0.55630284     -0.62722857     -0.20543439     -2.16837062     -0.67274042       8       0       0       0      12     -0.11589201     -2.01740028     -0.72824212   -437.45864859      0.00452635      0.00936364      0.00365315      0.00723899
H              -1.87535613      0.16796610      0.06001708      0.43815765      0.02858902      0.12535246      0.33411776     -0.24323899     -0.05505798       1       0       0       0      12      0.24261044     -0.18890899     -0.09653053    -16.05967829      0.00329991     -0.00009469      0.00128173     -0.00044918
H               0.77321612     -1.05557964      0.21773172     -0.57315523     -0.22281661      0.42267672     -0.18171057      0.57680987     -0.14925659       1       0       0       0      11     -0.16823301      0.52118529     -0.11155138    -15.32598144      0.00582435      0.00434114      0.00205764     -0.00783977
H              -0.43213777      0.81640337      0.86715290      0.04616807      0.02127070     -0.05067151     -0.54886834      0.77418629      0.01127514       1       0       0       0      12     -0.45577220      0.73375209      0.09039265    -15.74949217      0.00403539     -0.00241110      0.00036503     -0.00146143
H              -0.64802719      0.95087495     -0.93115668     -0.02248663     -0.28845300     -0.05493804      0.55387060     -0.23027721     -0.05748630       1       0       0       0      15      0.48759190     -0.16747385     -0.02913010    -16.15927741      0.00379562      0.00454425     -0.00273809      0.00312916
H               3.09732651     -0.25740723     -0.01953499     -0.80833483      0.04700201     -0.05731455      0.07024001      0.09207580     -0.10659988       1       0       0       0       7      0.05570693      0.11069111     -0.09018061    -14.29920783      0.00865570     -0.02026472     -0.00211691      0.00014781
7
EPS_SCF=0.00000100 energy=-670.07029601688168 units=gap_units Integrated_spin_density=0.00001924 opt_dir=/home/tks32/dft_pbe/apr_8_opt_fragments_subset/singlepoint_5_CH3OH time=7.00000000 free_energy=-670.01747785 cutoff=8.00000000 nneightol=1.20000000 pbc="T T T" Lattice="13.00000000       0.00000000       0.00000000       0.00000000       9.00000000       0.00000000       0.00000000       0.00000000       9.00000000" Properties=species:S:1:pos:R:3:momenta:R:3:forces:R:3:Z:I:1:map_shift:I:3:n_neighb:I:1:force:R:3:local_energy:R:1:gap_var:R:1:gap_variance_gradient:R:3
C              -0.76567618      0.30417933     -0.05068397     -0.04233945      0.01869316      0.44237282      1.34955858      1.22896122      0.87078848       6       0       0       0      11      0.72755019      1.04937343      0.93553437   -155.01377537      0.00402414      0.00101755     -0.00217471     -0.00071290
O              -0.11912804     -0.91292967     -0.16922285      0.81485428      0.36009257     -0.80902528     -1.23538670     -2.19958970     -1.15411774       8       0       0       0      12     -0.60209534     -2.11025454     -1.05139224   -437.42364712      0.00460501      0.00830725      0.00447024      0.00828145
H              -1.83428015      0.16335572      0.06442778      0.49052446     -0.03664558      0.15399070     -1.21863835     -0.37214110      0.09641643       1       0       0       0      12     -0.70732228     -0.27699904     -0.04281950    -16.05087969      0.00330463      0.00239732      0.00109827     -0.00065521
H               0.74524159     -1.07657034      0.24516810     -0.47155674     -0.15261112      0.47160435      0.94766465      0.41880846      0.39344721       1       0       0       0      12      0.43772626      0.45269073      0.20380410    -15.30772742      0.00569372      0.00128561      0.00247511     -0.00874024
H              -0.42287040      0.81435566      0.86758116     -0.01409878      0.08236108     -0.09615703     -0.54021470      0.87538483      0.03901270       1       0       0       0      12     -0.49005522      0.80929745      0.12631407    -15.77996986      0.00403128     -0.00483719      0.00053677     -0.00181121
H              -0.63749459      0.94739146     -0.93251136      0.02950822     -0.29464013     -0.08961615      0.33491975      0.04699573     -0.15184298       1       0       0       0      15      0.30669192      0.05032749     -0.09307319    -16.19081470      0.00383549      0.00389332     -0.00356121      0.00396777
H               3.03420778     -0.23978216     -0.02475885     -0.80689199      0.02275002     -0.07316941      0.36209678      0.00158056     -0.09370410       1       0       0       0       8      0.32750445      0.02556448     -0.07836762    -14.30348185      0.00936205     -0.01206386     -0.00284447     -0.00032966
7
EPS_SCF=0.00000100 energy=-670.00690043784186 units=gap_units Integrated_spin_density=0.00001924 opt_dir=/home/tks32/dft_pbe/apr_8_opt_fragments_subset/singlepoint_5_CH3OH time=8.00000000 free_energy=-669.89044278 cutoff=8.00000000 nneightol=1.20000000 pbc="T T T" Lattice="13.00000000       0.00000000       0.00000000       0.00000000       9.00000000       0.00000000       0.00000000       0.00000000       9.00000000" Properties=species:S:1:pos:R:3:momenta:R:3:forces:R:3:Z:I:1:map_shift:I:3:n_neighb:I:1:force:R:3:local_energy:R:1:gap_var:R:1:gap_variance_gradient:R:3
C              -0.75341269      0.30780601     -0.05057303      0.21206286      0.10713370      0.48936341      2.50806108      1.19439908      0.56646539       6       0       0       0      11      1.18001424      1.03686042      0.85465991   -154.98165466      0.00404088     -0.00311104     -0.00166472     -0.00068414
O              -0.09942820     -0.90266514     -0.19563314      0.60921709      0.29093217     -0.92877475     -1.44929201     -2.24442891     -1.41883438       8       0       0       0      12     -0.75677611     -2.10815469     -1.27827087   -437.39907824      0.00463228      0.00543486      0.00461735      0.00901245
H              -1.80039316      0.15467154      0.06950882      0.31079649     -0.13939221      0.14347273     -2.73549180     -0.39542731      0.28151967       1       0       0       0      13     -1.45397389     -0.30721546      0.00217506    -16.02968989      0.00331532      0.00425261      0.00082920     -0.00083391
H               0.71826215     -1.09589781      0.27245645     -0.40906827     -0.12137689      0.53110908      1.38271707      0.26066927      0.76442265       1       0       0       0      12      0.74295210      0.34457691      0.47344980    -15.29209383      0.00562309     -0.00094430      0.00310192     -0.00949832
H              -0.41754211      0.81712191      0.86945881     -0.06519827      0.15674865     -0.08242729     -0.44567724      0.93664890      0.09336567       1       0       0       0      13     -0.43930037      0.81107711      0.14303801    -15.81842755      0.00400968     -0.00621582      0.00059081     -0.00206295
H              -0.62320638      0.94378704     -0.93401404      0.05415633     -0.29733045     -0.05864098      0.06131274      0.31686819     -0.22495594       1       0       0       0      15      0.09326305      0.26681086     -0.14496218    -16.20597133      0.00388447      0.00312801     -0.00423262      0.00455022
H               2.97572039     -0.22482356     -0.03120387     -0.71196623      0.00328503     -0.09410219      0.67837017     -0.06872922     -0.06198306       1       0       0       0       8      0.63382098     -0.04395515     -0.05008974    -14.27998493      0.00949907     -0.00254432     -0.00324193     -0.00048334
7
EPS_SCF=0.00000100 energy=-669.96072815694629 units=gap_units Integrated_spin_density=0.00001924 opt_dir=/home/tks32/dft_pbe/apr_8_opt_fragments_subset/singlepoint_5_CH3OH time=9.00000000 free_energy=-669.80819030 cutoff=8.00000000 nneightol=1.20000000 pbc="T T T" Lattice="13.00000000       0.00000000       0.00000000       0.00000000       9.00000000       0.00000000       0.00000000       0.00000000       9.00000000" Properties=species:S:1:pos:R:3:momenta:R:3:forces:R:3:Z:I:1:map_shift:I:3:n_neighb:I:1:force:R:3:local_energy:R:1:gap_var:R:1:gap_variance_gradient:R:3
C              -0.73917944      0.31189426     -0.04946200      0.25296756      0.13958671      0.50205644      2.80213158      1.07272115      0.39312570       6       0       0       0      11      1.13391003      0.95656019      0.74714251   -154.97667761      0.00402129     -0.00572284     -0.00121355     -0.00065969
O              -0.07910396     -0.89327686     -0.22428838      0.69648803      0.07979719     -0.99682625     -1.05775927     -2.27189670     -1.37276847       8       0       0       0      11     -0.50152132     -2.05316649     -1.26335863   -437.38814750      0.00458482      0.00211836      0.00421668      0.00897144
H              -1.77886517      0.14202932      0.07481961      0.05966739     -0.13288842      0.20443077     -3.39498956     -0.35205006      0.37457447       1       0       0       0      13     -1.68168689     -0.25773161      0.00265548    -16.00907544      0.00330068      0.00489236      0.00060510     -0.00090715
H               0.69499835     -1.11483808      0.30105609     -0.29712038     -0.10076583      0.62230580      1.22817775      0.17955713      0.85955409       1       0       0       0      12      0.65063313      0.26887548      0.54931021    -15.28505429      0.00555528     -0.00162740      0.00351233     -0.00956137
H              -0.41448472      0.82499207      0.87296278     -0.08642346      0.25570079     -0.08442992     -0.29402128      0.90937968      0.12947721       1       0       0       0      13     -0.32668955      0.73941334      0.12623973    -15.85944899      0.00398072     -0.00623348      0.00053634     -0.00213834
H              -0.60693062      0.94222573     -0.93629458      0.02112068     -0.26838729     -0.10274659     -0.14880187      0.56234619     -0.35277543       1       0       0       0      14     -0.10205884      0.42795395     -0.14330206    -16.20193602      0.00391751      0.00144145     -0.00414503      0.00438922
H               2.92356556     -0.21302643     -0.03879352     -0.64669982      0.02695685     -0.14479025      0.86526264     -0.10005738     -0.03118757       1       0       0       0       8      0.82741344     -0.08190486     -0.01868724    -14.24038831      0.00910617      0.00513155     -0.00351188     -0.00009411
7
EPS_SCF=0.00000100 energy=-669.95044950964063 units=gap_units Integrated_spin_density=0.00001924 opt_dir=/home/tks32/dft_pbe/apr_8_opt_fragments_subset/singlepoint_5_CH3OH time=10.00000000 free_energy=-669.84761833 cutoff=8.00000000 nneightol=1.20000000 pbc="T T T" Lattice="13.00000000       0.00000000       0.00000000       0.00000000       9.00000000       0.00000000       0.00000000       0.00000000       9.00000000" Properties=species:S:1:pos:R:3:momenta:R:3:forces:R:3:Z:I:1:map_shift:I:3:n_neighb:I:1:force:R:3:local_energy:R:1:gap_var:R:1:gap_variance_gradient:R:3
C              -0.72274841      0.31574535     -0.04752432      0.50167626      0.24066968      0.47538861      1.77010155      0.89548828      0.41943903       6       0       0       0      11      0.49818400      0.81558608      0.61863614   -155.00472776      0.00397578     -0.00600735     -0.00095178     -0.00062351
O              -0.05763347     -0.88502541     -0.25460174      0.70939575     -0.11562789     -1.04656275     -0.11634876     -2.29149383     -0.80810805       8       0       0       0      12      0.06107021     -1.97031021     -0.93001098   -437.38629203      0.00448050     -0.00052378      0.00348997      0.00801697
H              -1.77178457      0.12588505      0.07950138     -0.27333333     -0.16629365      0.24585579     -2.62440417     -0.19181193      0.22801320       1       0       0       0      13     -1.26763407     -0.11126348     -0.06037251    -15.99632130      0.00325021      0.00414895      0.00044784     -0.00082289