7
EPS_SCF=0.00000100 energy=-670.06878768955676 units=gap_units Integrated_spin_density=0.00001924 opt_dir=/home/tks32/dft_pbe/apr_8_opt_fragments_subset/singlepoint_5_CH3OH time=0.00000000 free_energy=-670.06878769 cutoff=8.00000000 nneightol=1.20000000 pbc="T T T" Lattice="13.00000000       0.00000000       0.00000000       0.00000000       9.00000000       0.00000000       0.00000000       0.00000000       9.00000000" Properties=species:S:1:pos:R:3:momenta:R:3:forces:R:3:Z:I:1:map_shift:I:3:n_neighb:I:1:force:R:3:local_energy:R:1:gap_var:R:1:gap_variance_gradient:R:3
C              -0.85170330      0.30253923      0.00463343      5.45576389     -0.78295391     -0.42330267     -0.12734795     -0.05430427     -0.00006388       6       0       0       0      12     -0.12734797     -0.05430433     -0.00006393   -155.22920908      0.00318012      0.00225068     -0.00114359     -0.00004332
O              -0.23928017     -0.99555437     -0.00239197      6.08037964      1.18098515     -0.51859695     -0.37016440      0.17051029      0.01590349       8       0       0       0      12     -0.37016421      0.17051024      0.01590349   -437.70340651      0.00458390      0.00606563      0.00258297     -0.00068999
H              -1.93557585      0.13626839      0.02907194     -0.04505419      0.01870235      0.27550326     -0.14037653      0.17003808      0.00340453       1       0       0       0      13     -0.14037652      0.17003809      0.00340451    -16.06612243      0.00326814      0.00082746     -0.00048944     -0.00003205
H               0.72321841     -0.86855210     -0.02397487      0.87220168     -0.41663278      0.71450882      0.59833135     -0.25716188     -0.03308861       1       0       0       0      12      0.59833115     -0.25716187     -0.03308860    -15.23775568      0.00669922     -0.00504971      0.00081005      0.00097226
H              -0.57174008      0.89244562      0.89290117      0.63788730     -0.13487010     -0.04519662      0.07899639     -0.06650139      0.08263577       1       0       0       0      15      0.07899642     -0.06650133      0.08263587    -15.89439689      0.00321213      0.00184937     -0.00118747     -0.00152032
H              -0.61083911      0.88370095     -0.90069729      0.06259361      0.13476928     -0.00291584      0.06889960     -0.07351054     -0.07606432       1       0       0       0      15      0.06889960     -0.07351051     -0.07606437    -15.89075025      0.00316167      0.00095124     -0.00084913      0.00133826
H               3.48592011     -0.35084770      0.00045760     -0.36793659      0.00000000      0.00000000     -0.10833847      0.11092971      0.00727303       1       0       0       0       7     -0.10833847      0.11092971      0.00727303    -14.04714685      0.00406496     -0.00689467      0.00027662     -0.00002483
7
EPS_SCF=0.00000100 energy=-670.06758867597330 units=gap_units Integrated_spin_density=0.00001924 opt_dir=/home/tks32/dft_pbe/apr_8_opt_fragments_subset/singlepoint_5_CH3OH time=1.00000000 free_energy=-670.04236253 cutoff=8.00000000 nneightol=1.20000000 pbc="T T T" Lattice="13.00000000       0.00000000       0.00000000       0.00000000       9.00000000       0.00000000       0.00000000       0.00000000       9.00000000" Properties=species:S:1:pos:R:3:momenta:R:3:forces:R:3:Z:I:1:map_shift:I:3:n_neighb:I:1:force:R:3:local_energy:R:1:gap_var:R:1:gap_variance_gradient:R:3
C              -0.83247219      0.30300380     -0.00537739      0.60541121     -0.74998533     -0.29786063     -1.16895704      0.04965002      0.25425372       6       0       0       0      12     -1.03218392     -0.08610925      0.17449366   -155.24315013      0.00330110      0.00647820     -0.00181864     -0.00020413
O              -0.22050768     -0.98350378     -0.02833326      0.17932296      1.08621745     -0.58428125      1.16248378     -0.04453088     -0.09334345       8       0       0       0      12     -0.96418800     -0.24402724     -0.11921242   -437.66155496      0.00459939      0.00467495      0.00114429      0.00169668
H              -1.95119067      0.14078426      0.03484658     -0.37059482      0.11145640      0.28244096      1.21037740      0.25414935     -0.08043303       1       0       0       0      13      0.96797892      0.28664011     -0.05849908    -16.07452266      0.00325651     -0.00141813     -0.00038663     -0.00000768
H               0.73580347     -0.89852901      0.02085266      0.42679671     -0.45185919      0.71915281     -1.25952584     -0.20191175     -0.07710776       1       0       0       0      12      1.03327003     -0.11416425      0.04586141    -15.27245374      0.00659782     -0.00212064      0.00248472     -0.00222064
H              -0.54302476      0.87812080      0.88591705      0.22061079     -0.12014507     -0.04133542      0.07569801     -0.00256622      0.07133197       1       0       0       0      15      0.08684332      0.02876972      0.14105941    -15.83501252      0.00344532      0.00356078     -0.00126791     -0.00138376
H              -0.61105365      0.89536283     -0.90358889     -0.31490715      0.11583132     -0.04430264      0.19507674     -0.25054890     -0.06905611       1       0       0       0      15      0.13258543     -0.05088666     -0.17916142    -15.91916980      0.00326534      0.00327622     -0.00148166      0.00153380
H               3.42244547     -0.33523890     -0.00431677     -0.74663970      0.00848441     -0.03381383     -0.21515305      0.19575838     -0.00564535       1       0       0       0       7     -0.22430579      0.17977757     -0.00454157    -14.06172487      0.00457335     -0.01445139      0.00132583      0.00058573
7
EPS_SCF=0.00000100 energy=-670.05676632374798 units=gap_units Integrated_spin_density=0.00001924 opt_dir=/home/tks32/dft_pbe/apr_8_opt_fragments_subset/singlepoint_5_CH3OH time=2.00000000 free_energy=-669.92642817 cutoff=8.00000000 nneightol=1.20000000 pbc="T T T" Lattice="13.00000000       0.00000000       0.00000000       0.00000000       9.00000000       0.00000000       0.00000000       0.00000000       9.00000000" Properties=species:S:1:pos:R:3:momenta:R:3:forces:R:3:Z:I:1:map_shift:I:3:n_neighb:I:1:force:R:3:local_energy:R:1:gap_var:R:1:gap_variance_gradient:R:3
C              -0.81503955      0.30342710     -0.01494908      0.40784524     -0.66489645     -0.35241116     -1.64099982      0.27523659      0.46399183       6       0       0       0      12     -1.50359278     -0.06289246      0.35595086   -155.22897275      0.00350820      0.00913470     -0.00228532     -0.00036196
O              -0.20288037     -0.97200607     -0.05432327      0.36970388      1.11225934     -0.44399823      2.18965154     -0.40889963     -0.04987043       8       0       0       0      12     -1.18239043     -0.58032100     -0.31058555   -437.62424219      0.00453747      0.00490499      0.00019225      0.00402351
H              -1.95977936      0.14541780      0.04049961     -0.23792528      0.06958833      0.22582726      1.94182664      0.24376188     -0.15988214       1       0       0       0      13      1.62315350      0.33705675     -0.12178487    -16.06751883      0.00327528     -0.00311265     -0.00019469      0.00000722
H               0.74665485     -0.92878315      0.06491123      0.25243030     -0.43434371      0.68875403     -2.43423291     -0.00096747     -0.30709959       1       0       0       0      12      1.18222317     -0.02889044      0.15013737    -15.29897122      0.00648775      0.00037261      0.00385482     -0.00529129
H              -0.51622837      0.86470419      0.87994321      0.22646736     -0.14271661     -0.03543513      0.05866101      0.08892290      0.02005654       1       0       0       0      15      0.09762174      0.13525997      0.18337961    -15.79333726      0.00369599      0.00286173     -0.00070627     -0.00090683
H              -0.61190635      0.90652964     -0.90700297     -0.28655100      0.04142862     -0.05436858      0.31956868     -0.45221119      0.04255273       1       0       0       0      15      0.20660651     -0.03759507     -0.24330225    -15.95127334      0.00341165      0.00484340     -0.00190935      0.00168359
H               3.35917916     -0.31928951     -0.00907873     -0.73197050      0.01868047     -0.02836819     -0.43447513      0.25415692     -0.00974894       1       0       0       0       7     -0.42362171      0.23738225     -0.01379517    -14.09245074      0.00519517     -0.01900478      0.00104855      0.00084577
7
EPS_SCF=0.00000100 energy=-670.07244761392633 units=gap_units Integrated_spin_density=0.00001924 opt_dir=/home/tks32/dft_pbe/apr_8_opt_fragments_subset/singlepoint_5_CH3OH time=3.00000000 free_energy=-669.86342740 cutoff=8.00000000 nneightol=1.20000000 pbc="T T T" Lattice="13.00000000       0.00000000       0.00000000       0.00000000       9.00000000       0.00000000       0.00000000       0.00000000       9.00000000" Properties=species:S:1:pos:R:3:momenta:R:3:forces:R:3:Z:I:1:map_shift:I:3:n_neighb:I:1:force:R:3:local_energy:R:1:gap_var:R:1:gap_variance_gradient:R:3
C              -0.80086482      0.30368076     -0.02368297      0.24206383     -0.66818567     -0.23142061     -1.73376804      0.54086872      0.71512896       6       0       0       0      11     -1.59304352      0.02410452      0.52075524   -155.19984460      0.00371229      0.00972593     -0.00249465     -0.00049629
O              -0.18605013     -0.96124777     -0.08038027      0.63544674      1.10736623     -0.40817199      2.46118348     -0.90004006     -0.01518832       8       0       0       0      12     -1.10962629     -0.84714330     -0.48332277   -437.59212602      0.00447418      0.00654257      0.00009450      0.00587176
H              -1.95646848      0.14903989      0.04591437     -0.01826064      0.07331815      0.18538303      2.15571171      0.17102914     -0.20894337       1       0       0       0      13      1.83161171      0.31850339     -0.17190948    -16.05997003      0.00329198     -0.00379524      0.00004799     -0.00000489
H               0.75494260     -0.95679927      0.10755848     -0.06159485     -0.41842329      0.60761589     -2.68779689      0.23758222     -0.53202732       1       0       0       0      11      1.09949271      0.03483040      0.21788252    -15.31518621      0.00634139      0.00199509      0.00444692     -0.00761190
H              -0.49355925      0.85318776      0.87578712      0.23756117     -0.11314631     -0.05205079     -0.02843754      0.23700937     -0.02803200       1       0       0       0      13      0.05944491      0.25070284      0.19792570    -15.77277404      0.00385606      0.00118588      0.00000597     -0.00046393
H              -0.61438540      0.91689360     -0.91133085     -0.23199520     -0.00887299     -0.06046480      0.45033275     -0.54749018      0.08728579       1       0       0       0      15      0.28666263     -0.03894101     -0.25044540    -15.98935283      0.00355807      0.00543383     -0.00212104      0.00180311
H               3.29638547     -0.30475497     -0.01386588     -0.80322104      0.02794387     -0.04089073     -0.61722546      0.26104079     -0.01822374       1       0       0       0       7     -0.57454215      0.25794316     -0.03088582    -14.14319387      0.00586827     -0.02108808      0.00002031      0.00090215
7
EPS_SCF=0.00000100 energy=-670.11977254281430 units=gap_units Integrated_spin_density=0.00001924 opt_dir=/home/tks32/dft_pbe/apr_8_opt_fragments_subset/singlepoint_5_CH3OH time=4.00000000 free_energy=-669.92141924 cutoff=8.00000000 nneightol=1.20000000 pbc="T T T" Lattice="13.00000000       0.00000000       0.00000000       0.00000000       9.00000000       0.00000000       0.00000000       0.00000000       9.00000000" Properties=species:S:1:pos:R:3:momenta:R:3:forces:R:3:Z:I:1:map_shift:I:3:n_neighb:I:1:force:R:3:local_energy:R:1:gap_var:R:1:gap_variance_gradient:R:3
C              -0.79042684      0.30382816     -0.03120046      0.09695241     -0.46829551     -0.05211312     -1.49988412      0.93600013      0.87179218       6       0       0       0      11     -1.38165669      0.17461884      0.65099118   -155.16485916      0.00385272      0.00869337     -0.00250924     -0.00059309
O              -0.17018077     -0.95158706     -0.10651148      0.79128003      0.88555330     -0.50905168      2.06219386     -1.44101877     -0.07527736       8       0       0       0      12     -0.91694324     -1.06137600     -0.59058008   -437.56479202      0.00444402      0.00880265      0.00078923      0.00703415
H              -1.93913266      0.15149131      0.05075836      0.21668213      0.08299046      0.13480893      1.98089256      0.04138260     -0.20245465       1       0       0       0      13      1.65199978      0.23769084     -0.19854314    -16.05895378      0.00328390     -0.00327296      0.00031509     -0.00006038
H               0.75945967     -0.98266287      0.14839136     -0.34263919     -0.36304526      0.51056024     -2.27610134      0.45223242     -0.62984087       1       0       0       0      11      0.86989550      0.10115715      0.22066475    -15.32197875      0.00614994      0.00285712      0.00426283     -0.00887825
H              -0.47579842      0.84427445      0.87396774      0.21550134     -0.07597154     -0.03326313     -0.24057371      0.39705175     -0.07049895       1       0       0       0      13     -0.04160886      0.35798359      0.17154721    -15.77109215      0.00390777      0.00007788      0.00037181     -0.00044120
H              -0.61837687      0.92613348     -0.91659544     -0.14069241     -0.07464127     -0.04621662      0.56097160     -0.60564839      0.15536527       1       0       0       0      15      0.35117459     -0.04946856     -0.19995336    -16.03325388      0.00367630      0.00545466     -0.00228865      0.00202932
H               3.23445589     -0.29147746     -0.01881007     -0.83708431      0.01340981     -0.00472463     -0.58749885      0.22000027     -0.04908562       1       0       0       0       7     -0.53286108      0.23939415     -0.05412655    -14.20484281      0.00661054     -0.02261272     -0.00094108      0.00090944
7
EPS_SCF=0.00000100 energy=-670.15859078003086 units=gap_units Integrated_spin_density=0.00001924 opt_dir=/home/tks32/dft_pbe/apr_8_opt_fragments_subset/singlepoint_5_CH3OH time=5.00000000 free_energy=-670.02465497 cutoff=8.00000000 nneightol=1.20000000 pbc="T T T" Lattice="13.00000000       0.00000000       0.00000000       0.00000000       9.00000000       0.00000000       0.00000000       0.00000000       9.00000000" Properties=species:S:1:pos:R:3:momenta:R:3:forces:R:3:Z:I:1:map_shift:I:3:n_neighb:I:1:force:R:3:local_energy:R:1:gap_var:R:1:gap_variance_gradient:R:3
C              -0.78112614      0.30425251     -0.03728526     -0.01055651     -0.24397781      0.15214617     -1.04321306      1.12087678      0.95255800       6       0       0       0      11     -1.07384465      0.34147681      0.73867255   -155.12824961      0.00391229      0.00661768     -0.00236507     -0.00064918
O              -0.15467512     -0.94257328     -0.13262953      0.88302482      0.70608064     -0.59884458      1.03278913     -1.91114048     -0.28736088       8       0       0       0      12     -0.78780507     -1.26092457     -0.64058748   -437.53449218      0.00446056      0.01081397      0.00190610      0.00762350
H              -1.91519011      0.15251460      0.05527372      0.36769236      0.03634687      0.09026527      1.41385443     -0.09799378     -0.14617224       1       0       0       0      13      1.28274718      0.14056838     -0.20535913    -16.05845790      0.00326648     -0.00222173      0.00052740     -0.00014323
H               0.75882973     -1.00828490      0.18677279     -0.47288385     -0.30471476      0.48093729     -1.38005779      0.58717715     -0.51881554       1       0       0       0      11      0.61844639      0.17391750      0.17937756    -15.32186784      0.00594179      0.00310326      0.00368580     -0.00925425
H              -0.46091225      0.83810909      0.87355414      0.14724989     -0.04209193     -0.05149219     -0.42520042      0.62474879      0.00325695       1       0       0       0      13     -0.15951779      0.44434453      0.12965777    -15.77985217      0.00394513      0.00042191      0.00016028     -0.00096955
H              -0.62090915      0.93379451     -0.92182198     -0.07521088     -0.18029304     -0.03109141      0.63179461     -0.49028555      0.08442848       1       0       0       0      15      0.36579470     -0.04413684     -0.13410175    -16.07476139      0.00376344      0.00517712     -0.00246194      0.00233273
H               3.17398305     -0.27781254     -0.02386388     -0.83931582      0.02865003     -0.04192054     -0.22996690      0.16661709     -0.08789477       1       0       0       0       7     -0.24582075      0.20475419     -0.06765953    -14.26090969      0.00753297     -0.02391222     -0.00145257      0.00105997
7
EPS_SCF=0.00000100 energy=-670.17253159722463 units=gap_units Integrated_spin_density=0.00001924 opt_dir=/home/tks32/dft_pbe/apr_8_opt_fragments_subset/singlepoint_5_CH3OH time=6.00000000 free_energy=-670.07476078 cutoff=8.00000000 nneightol=1.20000000 pbc="T T T" Lattice="13.00000000       0.00000000       0.00000000       0.00000000       9.00000000       0.00000000       0.00000000       0.00000000       9.00000000" Properties=species:S:1:pos:R:3:momenta:R:3:forces:R:3:Z:I:1:map_shift:I:3:n_neighb:I:1:force:R:3:local_energy:R:1:gap_var:R:1:gap_variance_gradient:R:3
C              -0.77202214      0.30501817     -0.04179197     -0.09931723     -0.14189494      0.24212349     -0.02221506      1.19881486      1.02986603       6       0       0       0      11     -0.61794175      0.48825644      0.77761706   -155.09406085      0.00394185      0.00603566     -0.00240912     -0.00066874
O              -0.13885043     -0.93418329     -0.15868642      1.01896820      0.55630284     -0.62722857     -0.20543439     -2.16837062     -0.67274042       8       0       0       0      12     -0.62022924     -1.40764759     -0.64194191   -437.50247463      0.00449505      0.01076098      0.00282003      0.00780124
H              -1.88803032      0.15163018      0.05927803      0.43815765      0.02858902      0.12535246      0.33411776     -0.24323899     -0.05505798       1       0       0       0      13      0.79497356      0.04371471     -0.19175657    -16.05412354      0.00325061     -0.00095310      0.00066458     -0.00024948
H               0.75290266     -1.03334600      0.22259910     -0.57315523     -0.22281661      0.42267672     -0.18171057      0.57680987     -0.14925659       1       0       0       0      11      0.39193782      0.24483290      0.11901856    -15.31666741      0.00575729      0.00290014      0.00304379     -0.00910169
H              -0.44840577      0.83499996      0.87431943      0.04616807      0.02127070     -0.05067151     -0.54886834      0.77418629      0.01127514       1       0       0       0      13     -0.27150791      0.49575349      0.07833762    -15.79614379      0.00397558     -0.00076039      0.00033719     -0.00121347
H              -0.62119092      0.93985430     -0.92658345     -0.02248663     -0.28845300     -0.05493804      0.55387060     -0.23027721     -0.05748630       1       0       0       0      15      0.31541103     -0.01466875     -0.07054158    -16.10966150      0.00381104      0.00441107     -0.00256899      0.00261162
H               3.11559692     -0.26397333     -0.02913471     -0.80833483      0.04700201     -0.05731455      0.07024001      0.09207580     -0.10659988       1       0       0       0       7      0.00735650      0.14975880     -0.07073318    -14.29939987      0.00849296     -0.02239435     -0.00188749      0.00082051
7
EPS_SCF=0.00000100 energy=-670.16359546663534 units=gap_units Integrated_spin_density=0.00001924 opt_dir=/home/tks32/dft_pbe/apr_8_opt_fragments_subset/singlepoint_5_CH3OH time=7.00000000 free_energy=-670.01747785 cutoff=8.00000000 nneightol=1.20000000 pbc="T T T" Lattice="13.00000000       0.00000000       0.00000000       0.00000000       9.00000000       0.00000000       0.00000000       0.00000000       9.00000000" Properties=species:S:1:pos:R:3:momenta:R:3:forces:R:3:Z:I:1:map_shift:I:3:n_neighb:I:1:force:R:3:local_energy:R:1:gap_var:R:1:gap_variance_gradient:R:3
C              -0.76203399      0.30611612     -0.04471262     -0.04233945      0.01869316      0.44237282      1.34955858      1.22896122      0.87078848       6       0       0       0      11     -0.22800448      0.60289296      0.77130210   -155.06894233      0.00397283      0.00348189     -0.00212480     -0.00068421
O              -0.12177628     -0.92622483     -0.18462506      0.81485428      0.36009257     -0.80902528     -1.23538670     -2.19958970     -1.15411774       8       0       0       0      12     -0.39966156     -1.48291678     -0.61354886   -437.47407797      0.00452042      0.00882740      0.00325937      0.00773800
H              -1.86181059      0.14825314      0.06281337      0.49052446     -0.03664558      0.15399070     -1.21863835     -0.37214110      0.09641643       1       0       0       0      13      0.32753999     -0.02806016     -0.16539939    -16.04439486      0.00323841      0.00018021      0.00071999     -0.00035773
H               0.74198262     -1.05718502      0.25576695     -0.47155674     -0.15261112      0.47160435      0.94766465      0.41880846      0.39344721       1       0       0       0      11      0.22212341      0.29927790      0.06819633    -15.30817949      0.00561905      0.00238919      0.00256506     -0.00875761
H              -0.43761259      0.83510845      0.87577053     -0.01409878      0.08236108     -0.09615703     -0.54021470      0.87538483      0.03901270       1       0       0       0      13     -0.35286718      0.50319585      0.02469403    -15.81700533      0.00398202     -0.00278949      0.00078782     -0.00115765
H              -0.61869800      0.94446251     -0.93043733      0.02950822     -0.29464013     -0.08961615      0.33491975      0.04699573     -0.15184298       1       0       0       0      15      0.21451812      0.03564274     -0.01941261    -16.13365090      0.00382254      0.00406858     -0.00283962      0.00297315
H               3.05994884     -0.25053037     -0.03457583     -0.80689199      0.02275002     -0.07316941      0.36209678      0.00158056     -0.09370410       1       0       0       0       7      0.21635170      0.06996749     -0.06583160    -14.31734459      0.00921992     -0.01615779     -0.00236781      0.00024605
7
EPS_SCF=0.00000100 energy=-670.13721171200837 units=gap_units Integrated_spin_density=0.00001924 opt_dir=/home/tks32/dft_pbe/apr_8_opt_fragments_subset/singlepoint_5_CH3OH time=8.00000000 free_energy=-669.89044278 cutoff=8.00000000 nneightol=1.20000000 pbc="T T T" Lattice="13.00000000       0.00000000       0.00000000       0.00000000       9.00000000       0.00000000       0.00000000       0.00000000       9.00000000" Properties=species:S:1:pos:R:3:momenta:R:3:forces:R:3:Z:I:1:map_shift:I:3:n_neighb:I:1:force:R:3:local_energy:R:1:gap_var:R:1:gap_variance_gradient:R:3
C              -0.75031054      0.30747127     -0.04616730      0.21206286      0.10713370      0.48936341      2.50806108      1.19439908      0.56646539       6       0       0       0      11     -0.11157192      0.66991788      0.73323448   -155.05781575      0.00398587     -0.00004115     -0.00165928     -0.00069954
O              -0.10268560     -0.91849418     -0.21036792      0.60921709      0.29093217     -0.92877475     -1.44929201     -2.24442891     -1.41883438       8       0       0       0      11     -0.22603657     -1.49795919     -0.57722201   -437.45185837      0.00451976      0.00580141      0.00314122      0.00754283
H              -1.84006994      0.14199746      0.06601402      0.31079649     -0.13939221      0.14347273     -2.73549180     -0.39542731      0.28151967       1       0       0       0      13      0.03371484     -0.05438424     -0.14244465    -16.03210005      0.00322363      0.00090433      0.00070008     -0.00043478
H               0.72665509     -1.07923727      0.28624879     -0.40906827     -0.12137689      0.53110908      1.38271707      0.26066927      0.76442265       1       0       0       0      12      0.11737062      0.32159576      0.04817312    -15.29836055      0.00552630      0.00174782      0.00236253     -0.00842988
H              -0.42792090      0.83843193      0.87732679     -0.06519827      0.15674865     -0.08242729     -0.44567724      0.93664890      0.09336567       1       0       0       0      13     -0.38408495      0.46824226     -0.02039005    -15.83992749      0.00396684     -0.00461906      0.00126987     -0.00093454
H              -0.61330481      0.94790227     -0.93298874      0.05415633     -0.29733045     -0.05864098      0.06131274      0.31686819     -0.22495594       1       0       0       0      14      0.09254912      0.09949007      0.01229834    -16.14427384      0.00384234      0.00364367     -0.00301927      0.00318354
H               3.00763669     -0.23807148     -0.04006564     -0.71196623      0.00328503     -0.09410219      0.67837017     -0.06872922     -0.06198306       1       0       0       0       8      0.47805886     -0.00690255     -0.05364923    -14.31287566      0.00952100     -0.00743702     -0.00279514     -0.00022763
7
EPS_SCF=0.00000100 energy=-670.09910420785013 units=gap_units Integrated_spin_density=0.00001924 opt_dir=/home/tks32/dft_pbe/apr_8_opt_fragments_subset/singlepoint_5_CH3OH time=9.00000000 free_energy=-669.80819030 cutoff=8.00000000 nneightol=1.20000000 pbc="T T T" Lattice="13.00000000       0.00000000       0.00000000       0.00000000       9.00000000       0.00000000       0.00000000       0.00000000       9.00000000" Properties=species:S:1:pos:R:3:momenta:R:3:forces:R:3:Z:I:1:map_shift:I:3:n_neighb:I:1:force:R:3:local_energy:R:1:gap_var:R:1:gap_variance_gradient:R:3
C              -0.73635337      0.30896216     -0.04637589      0.25296756      0.13958671      0.50205644      2.80213158      1.07272115      0.39312570       6       0       0       0      11     -0.32106103      0.66389125      0.67892755   -155.06242691      0.00397549     -0.00297347     -0.00123557     -0.00070254
O              -0.08110992     -0.91079666     -0.23579250      0.69648803      0.07979719     -0.99682625     -1.05775927     -2.27189670     -1.37276847       8       0       0       0      12     -0.08852209     -1.44941071     -0.54145349   -437.43578372      0.00448758      0.00275192      0.00257171      0.00729335
H              -1.82518643      0.13273895      0.06900000      0.05966739     -0.13288842      0.20443077     -3.39498956     -0.35205006      0.37457447       1       0       0       0      13      0.02789464     -0.01945184     -0.13841182    -16.02121661      0.00320066      0.00106885      0.00061681     -0.00045171
H               0.70762289     -1.09916593      0.31411612     -0.29712038     -0.10076583      0.62230580      1.22817775      0.17955713      0.85955409       1       0       0       0      13      0.06865901      0.30064974      0.06749962    -15.28895849      0.00546624      0.00114655      0.00246349     -0.00821680
H              -0.41883214      0.84479041      0.87841889     -0.08642346      0.25570079     -0.08442992     -0.29402128      0.90937968      0.12947721       1       0       0       0      13     -0.35927340      0.39786242     -0.04751264    -15.86268165      0.00394157     -0.00554142      0.00159642     -0.00069418
H              -0.60527419      0.95053434     -0.93390522      0.02112068     -0.26838729     -0.10274659     -0.14880187      0.56234619     -0.35277543       1       0       0       0      14     -0.03365881      0.17169838      0.01820935    -16.14093192      0.00386255      0.00234420     -0.00276988      0.00297879
H               2.95913316     -0.22706327     -0.04546140     -0.64669982      0.02695685     -0.14479025      0.86526264     -0.10005738     -0.03118757       1       0       0       0       8      0.70596167     -0.06523924     -0.03725857    -14.28710490      0.00934176      0.00120337     -0.00324298     -0.00020692
7
EPS_SCF=0.00000100 energy=-670.05865108882244 units=gap_units Integrated_spin_density=0.00001924 opt_dir=/home/tks32/dft_pbe/apr_8_opt_fragments_subset/singlepoint_5_CH3OH time=10.00000000 free_energy=-669.84761833 cutoff=8.00000000 nneightol=1.20000000 pbc="T T T" Lattice="13.00000000       0.00000000       0.00000000       0.00000000       9.00000000       0.00000000       0.00000000       0.00000000       9.00000000" Properties=species:S:1:pos:R:3:momenta:R:3:forces:R:3:Z:I:1:map_shift:I:3:n_neighb:I:1:force:R:3:local_energy:R:1:gap_var:R:1:gap_variance_gradient:R:3
C              -0.72213109      0.31030021     -0.04551192      0.50167626      0.24066968      0.47538861      1.77010155      0.89548828      0.41943903       6       0       0       0      11     -0.54844591      0.62297348      0.59412866   -155.07017197      0.00395186     -0.00450554     -0.00098618     -0.00067420
O              -0.05817349     -0.90392663     -0.26078704      0.70939575     -0.11562789     -1.04656275     -0.11634876     -2.29149383     -0.80810805       8       0       0       0      12      0.05948362     -1.32399040     -0.46046649   -437.42807064      0.00442956      0.00048937      0.00179696      0.00696672
H              -1.81150982      0.12170963      0.07110077     -0.27333333     -0.16629365      0.24585579     -2.62440417     -0.19181193      0.22801320       1       0       0       0      13      0.07575746      0.02699520     -0.13069093    -16.00860202      0.00317798      0.00112695      0.00055180     -0.00044693