7
EPS_SCF=0.00000100 energy=-670.06878768955676 units=gap_units Integrated_spin_density=0.00001924 opt_dir=/home/tks32/dft_pbe/apr_8_opt_fragments_subset/singlepoint_5_CH3OH time=0.00000000 free_energy=-670.06878769 cutoff=8.00000000 nneightol=1.20000000 pbc="T T T" Lattice="13.00000000       0.00000000       0.00000000       0.00000000       9.00000000       0.00000000       0.00000000       0.00000000       9.00000000" Properties=species:S:1:pos:R:3:momenta:R:3:forces:R:3:Z:I:1:map_shift:I:3:n_neighb:I:1:force:R:3:local_energy:R:1:gap_var:R:1:gap_variance_gradient:R:3
C              -0.85170330      0.30253923      0.00463343      5.45576389     -0.78295391     -0.42330267     -0.12734795     -0.05430427     -0.00006388       6       0       0       0      12     -0.12734797     -0.05430433     -0.00006393   -155.22920908      0.00318012      0.00225068     -0.00114359     -0.00004332
O              -0.23928017     -0.99555437     -0.00239197      6.08037964      1.18098515     -0.51859695     -0.37016440      0.17051029      0.01590349       8       0       0       0      12     -0.37016421      0.17051024      0.01590349   -437.70340651      0.00458390      0.00606563      0.00258297     -0.00068999
H              -1.93557585      0.13626839      0.02907194     -0.04505419      0.01870235      0.27550326     -0.14037653      0.17003808      0.00340453       1       0       0       0      13     -0.14037652      0.17003809      0.00340451    -16.06612243      0.00326814      0.00082746     -0.00048944     -0.00003205
H               0.72321841     -0.86855210     -0.02397487      0.87220168     -0.41663278      0.71450882      0.59833135     -0.25716188     -0.03308861       1       0       0       0      12      0.59833115     -0.25716187     -0.03308860    -15.23775568      0.00669922     -0.00504971      0.00081005      0.00097226
H              -0.57174008      0.89244562      0.89290117      0.63788730     -0.13487010     -0.04519662      0.07899639     -0.06650139      0.08263577       1       0       0       0      15      0.07899642     -0.06650133      0.08263587    -15.89439689      0.00321213      0.00184937     -0.00118747     -0.00152032
H              -0.61083911      0.88370095     -0.90069729      0.06259361      0.13476928     -0.00291584      0.06889960     -0.07351054     -0.07606432       1       0       0       0      15      0.06889960     -0.07351051     -0.07606437    -15.89075025      0.00316167      0.00095124     -0.00084913      0.00133826
H               3.48592011     -0.35084770      0.00045760     -0.36793659      0.00000000      0.00000000     -0.10833847      0.11092971      0.00727303       1       0       0       0       7     -0.10833847      0.11092971      0.00727303    -14.04714685      0.00406496     -0.00689467      0.00027662     -0.00002483
7
EPS_SCF=0.00000100 energy=-670.05673437899702 units=gap_units Integrated_spin_density=0.00001924 opt_dir=/home/tks32/dft_pbe/apr_8_opt_fragments_subset/singlepoint_5_CH3OH time=1.00000000 free_energy=-670.04236253 cutoff=8.00000000 nneightol=1.20000000 pbc="T T T" Lattice="13.00000000       0.00000000       0.00000000       0.00000000       9.00000000       0.00000000       0.00000000       0.00000000       9.00000000" Properties=species:S:1:pos:R:3:momenta:R:3:forces:R:3:Z:I:1:map_shift:I:3:n_neighb:I:1:force:R:3:local_energy:R:1:gap_var:R:1:gap_variance_gradient:R:3
C              -0.83160734      0.30387800     -0.00279677      0.60541121     -0.74998533     -0.29786063     -1.16895704      0.04965002      0.25425372       6       0       0       0      12     -1.09183597     -0.16600091      0.11883225   -155.25552318      0.00329826      0.00661517     -0.00182601     -0.00018171
O              -0.22102176     -0.98666820     -0.02959537      0.17932296      1.08621745     -0.58428125      1.16248378     -0.04453088     -0.09334345       8       0       0       0      12     -1.31014160     -0.17772000     -0.08463985   -437.65966020      0.00461478      0.00578611      0.00142985      0.00168687
H              -1.95062243      0.13820452      0.03426305     -0.37059482      0.11145640      0.28244096      1.21037740      0.25414935     -0.08043303       1       0       0       0      13      0.99497999      0.32286992     -0.06303021    -16.07412040      0.00324895     -0.00132657     -0.00056626     -0.00000649
H               0.72696229     -0.89483912      0.01829264      0.42679671     -0.45185919      0.71915281     -1.25952584     -0.20191175     -0.07710776       1       0       0       0      12      1.42529533     -0.12180636      0.06731911    -15.25314177      0.00663160     -0.00407633      0.00218439     -0.00217252
H              -0.54617582      0.88250003      0.88741010      0.22061079     -0.12014507     -0.04133542      0.07569801     -0.00256622      0.07133197       1       0       0       0      15      0.10191341     -0.01174125      0.14870473    -15.84944146      0.00342144      0.00360505     -0.00126722     -0.00135332
H              -0.60350824      0.89118168     -0.90186553     -0.31490715      0.11583132     -0.04430264      0.19507674     -0.25054890     -0.06905611       1       0       0       0      15      0.09712448     -0.01915171     -0.18285729    -15.90245564      0.00328168      0.00337759     -0.00146126      0.00148224
H               3.42597330     -0.33425690     -0.00570812     -0.74663970      0.00848441     -0.03381383     -0.21515305      0.19575838     -0.00564535       1       0       0       0       7     -0.21733563      0.17355032     -0.00432874    -14.06239173      0.00454428     -0.01398102      0.00150651      0.00054492
7
EPS_SCF=0.00000100 energy=-670.03350621070865 units=gap_units Integrated_spin_density=0.00001924 opt_dir=/home/tks32/dft_pbe/apr_8_opt_fragments_subset/singlepoint_5_CH3OH time=2.00000000 free_energy=-669.92642817 cutoff=8.00000000 nneightol=1.20000000 pbc="T T T" Lattice="13.00000000       0.00000000       0.00000000       0.00000000       9.00000000       0.00000000       0.00000000       0.00000000       9.00000000" Properties=species:S:1:pos:R:3:momenta:R:3:forces:R:3:Z:I:1:map_shift:I:3:n_neighb:I:1:force:R:3:local_energy:R:1:gap_var:R:1:gap_variance_gradient:R:3
C              -0.81354530      0.30494641     -0.01000628      0.40784524     -0.66489645     -0.35241116     -1.64099982      0.27523659      0.46399183       6       0       0       0      12     -1.60592442     -0.22283989      0.24484524   -155.25147694      0.00349702      0.00948110     -0.00232418     -0.00031303
O              -0.20389546     -0.97826696     -0.05684530      0.36970388      1.11225934     -0.44399823      2.18965154     -0.40889963     -0.04987043       8       0       0       0      12     -1.88770647     -0.42033220     -0.29217517   -437.61870061      0.00457408      0.00682745      0.00057515      0.00417342
H              -1.95885815      0.14037467      0.03930798     -0.23792528      0.06958833      0.22582726      1.94182664      0.24376188     -0.15988214       1       0       0       0      13      1.66964812      0.40718775     -0.12698231    -16.06630582      0.00325899     -0.00293124     -0.00053361      0.00001669
H               0.73014831     -0.92119304      0.06017210      0.25243030     -0.43434371      0.68875403     -2.43423291     -0.00096747     -0.30709959       1       0       0       0      12      1.95893165     -0.06884085      0.25285691    -15.26557378      0.00653111     -0.00310070      0.00342957     -0.00540631
H              -0.52235295      0.87327171      0.88292598      0.22646736     -0.14271661     -0.03543513      0.05866101      0.08892290      0.02005654       1       0       0       0      15      0.13106004      0.04621911      0.19124220    -15.81950025      0.00365189      0.00326098     -0.00077022     -0.00089976
H              -0.59790658      0.89873011     -0.90381797     -0.28655100      0.04142862     -0.05436858      0.31956868     -0.45221119      0.04255273       1       0       0       0      15      0.13798416      0.02836970     -0.25653659    -15.92120759      0.00344958      0.00482583     -0.00182172      0.00154435
H               3.36641013     -0.31786288     -0.01173652     -0.73197050      0.01868047     -0.02836819     -0.43447513      0.25415692     -0.00974894       1       0       0       0       7     -0.40399307      0.23023638     -0.01325028    -14.09074122      0.00513707     -0.01836343      0.00144500      0.00088464
7
EPS_SCF=0.00000100 energy=-670.04434236061968 units=gap_units Integrated_spin_density=0.00001924 opt_dir=/home/tks32/dft_pbe/apr_8_opt_fragments_subset/singlepoint_5_CH3OH time=3.00000000 free_energy=-669.86342740 cutoff=8.00000000 nneightol=1.20000000 pbc="T T T" Lattice="13.00000000       0.00000000       0.00000000       0.00000000       9.00000000       0.00000000       0.00000000       0.00000000       9.00000000" Properties=species:S:1:pos:R:3:momenta:R:3:forces:R:3:Z:I:1:map_shift:I:3:n_neighb:I:1:force:R:3:local_energy:R:1:gap_var:R:1:gap_variance_gradient:R:3
C              -0.79918346      0.30543318     -0.01682030      0.24206383     -0.66818567     -0.23142061     -1.73376804      0.54086872      0.71512896       6       0       0       0      12     -1.71695133     -0.20017458      0.36166740   -155.23051834      0.00369214      0.01029138     -0.00257540     -0.00041978
O              -0.18741742     -0.97044712     -0.08417416      0.63544674      1.10736623     -0.40817199      2.46118348     -0.90004006     -0.01518832       8       0       0       0      12     -2.08715637     -0.56339524     -0.51917079   -437.58753144      0.00451956      0.00880087      0.00032399      0.00632171
H              -1.95558350      0.14167473      0.04391236     -0.01826064      0.07331815      0.18538303      2.15571171      0.17102914     -0.20894337       1       0       0       0      13      1.89445397      0.41454195     -0.17588033    -16.05782760      0.00326710     -0.00356062     -0.00040444      0.00002024
H               0.73296965     -0.94473720      0.10161527     -0.06159485     -0.41842329      0.60761589     -2.68779689      0.23758222     -0.53202732       1       0       0       0      11      2.15331198     -0.06394176      0.44133832    -15.27474945      0.00638421     -0.00212909      0.00418169     -0.00812683
H              -0.50245998      0.86553772      0.88027053      0.23756117     -0.11314631     -0.05205079     -0.02843754      0.23700937     -0.02803200       1       0       0       0      14      0.12551883      0.10065479      0.18887402    -15.80776265      0.00381041      0.00192930     -0.00008124     -0.00044470
H              -0.59592318      0.90655605     -0.90707040     -0.23199520     -0.00887299     -0.06046480      0.45033275     -0.54749018      0.08728579       1       0       0       0      15      0.18924899      0.05275232     -0.27059893    -15.95004937      0.00360466      0.00521432     -0.00195638      0.00156129
H               3.30759790     -0.30401734     -0.01773330     -0.80322104      0.02794387     -0.04089073     -0.61722546      0.26104079     -0.01822374       1       0       0       0       7     -0.55842607      0.25956251     -0.02622969    -14.13590351      0.00576833     -0.02054615      0.00051177      0.00108806
7
EPS_SCF=0.00000100 energy=-670.10081380790007 units=gap_units Integrated_spin_density=0.00001924 opt_dir=/home/tks32/dft_pbe/apr_8_opt_fragments_subset/singlepoint_5_CH3OH time=4.00000000 free_energy=-669.92141924 cutoff=8.00000000 nneightol=1.20000000 pbc="T T T" Lattice="13.00000000       0.00000000       0.00000000       0.00000000       9.00000000       0.00000000       0.00000000       0.00000000       9.00000000" Properties=species:S:1:pos:R:3:momenta:R:3:forces:R:3:Z:I:1:map_shift:I:3:n_neighb:I:1:force:R:3:local_energy:R:1:gap_var:R:1:gap_variance_gradient:R:3
C              -0.78909832      0.30531426     -0.02303583      0.09695241     -0.46829551     -0.05211312     -1.49988412      0.93600013      0.87179218       6       0       0       0      12     -1.49982496     -0.08771040      0.45668539   -155.20160395      0.00382835      0.00947884     -0.00263685     -0.00049432
O              -0.17179355     -0.96346226     -0.11155643      0.79128003      0.88555330     -0.50905168      2.06219386     -1.44101877     -0.07527736       8       0       0       0      12     -1.92908415     -0.63328678     -0.66769568   -437.56838029      0.00448047      0.01064401      0.00060114      0.00778163
H              -1.93860458      0.14218112      0.04772347      0.21668213      0.08299046      0.13480893      1.98089256      0.04138260     -0.20245465       1       0       0       0      13      1.72727875      0.34663765     -0.20081566    -16.05596294      0.00325279     -0.00301506     -0.00019557     -0.00001079
H               0.73467597     -0.96586153      0.14246113     -0.34263919     -0.36304526      0.51056024     -2.27610134      0.45223242     -0.62984087       1       0       0       0      11      1.97992933     -0.06801891      0.54405894    -15.28141076      0.00618712     -0.00114308      0.00437309     -0.00990000
H              -0.48711059      0.85977882      0.87982375      0.21550134     -0.07597154     -0.03326313     -0.24057371      0.39705175     -0.07049895       1       0       0       0      14      0.06219305      0.14243649      0.12996610    -15.81272133      0.00387656      0.00039582      0.00053088     -0.00019235
H              -0.59797240      0.91461615     -0.91163885     -0.14069241     -0.07464127     -0.04621662      0.56097160     -0.60564839      0.15536527       1       0       0       0      15      0.23430329      0.04993539     -0.21859291    -15.98866717      0.00371502      0.00512214     -0.00207900      0.00170710
H               3.24990347     -0.29256656     -0.02377725     -0.83708431      0.01340981     -0.00472463     -0.58749885      0.22000027     -0.04908562       1       0       0       0       7     -0.57479532      0.25000656     -0.04360618    -14.19206737      0.00643629     -0.02148267     -0.00059370      0.00110873
7
EPS_SCF=0.00000100 energy=-670.16030927482552 units=gap_units Integrated_spin_density=0.00001924 opt_dir=/home/tks32/dft_pbe/apr_8_opt_fragments_subset/singlepoint_5_CH3OH time=5.00000000 free_energy=-670.02465497 cutoff=8.00000000 nneightol=1.20000000 pbc="T T T" Lattice="13.00000000       0.00000000       0.00000000       0.00000000       9.00000000       0.00000000       0.00000000       0.00000000       9.00000000" Properties=species:S:1:pos:R:3:momenta:R:3:forces:R:3:Z:I:1:map_shift:I:3:n_neighb:I:1:force:R:3:local_energy:R:1:gap_var:R:1:gap_variance_gradient:R:3
C              -0.78062779      0.30509399     -0.02850916     -0.01055651     -0.24397781      0.15214617     -1.04321306      1.12087678      0.95255800       6       0       0       0      11     -1.15428924      0.06360930      0.52493373   -155.16757976      0.00389502      0.00761794     -0.00252428     -0.00053946
O              -0.15645809     -0.95682750     -0.13875518      0.88302482      0.70608064     -0.59884458      1.03278913     -1.91114048     -0.28736088       8       0       0       0      12     -1.72059776     -0.69605967     -0.72677845   -437.55129437      0.00447554      0.01272413      0.00133380      0.00853989
H              -1.91524054      0.14201771      0.05106116      0.36769236      0.03634687      0.09026527      1.41385443     -0.09799378     -0.14617224       1       0       0       0      13      1.36066447      0.24565540     -0.20372525    -16.05443318      0.00323244     -0.00196671      0.00002252     -0.00006338
H               0.73368803     -0.98744656      0.18182775     -0.47288385     -0.30471476      0.48093729     -1.38005779      0.58717715     -0.51881554       1       0       0       0      11      1.64287372     -0.05732494      0.55429253    -15.28586136      0.00596628     -0.00032296      0.00419825     -0.01067094
H              -0.47392265      0.85599164      0.88033635      0.14724989     -0.04209193     -0.05149219     -0.42520042      0.62474879      0.00325695       1       0       0       0      13     -0.03180030      0.17347519      0.05136104    -15.82578687      0.00389697      0.00075499      0.00044642     -0.00058712
H              -0.60117906      0.92246330     -0.91632912     -0.07521088     -0.18029304     -0.03109141      0.63179461     -0.49028555      0.08442848       1       0       0       0      15      0.24965741      0.04314605     -0.14648956    -16.02806140      0.00378655      0.00486567     -0.00223959      0.00197532
H               3.19374009     -0.28129257     -0.02963180     -0.83931582      0.02865003     -0.04192054     -0.22996690      0.16661709     -0.08789477       1       0       0       0       7     -0.34650829      0.22749868     -0.05359404    -14.24729234      0.00722227     -0.02367305     -0.00123711      0.00134568
7
EPS_SCF=0.00000100 energy=-670.19519912578232 units=gap_units Integrated_spin_density=0.00001924 opt_dir=/home/tks32/dft_pbe/apr_8_opt_fragments_subset/singlepoint_5_CH3OH time=6.00000000 free_energy=-670.07476078 cutoff=8.00000000 nneightol=1.20000000 pbc="T T T" Lattice="13.00000000       0.00000000       0.00000000       0.00000000       9.00000000       0.00000000       0.00000000       0.00000000       9.00000000" Properties=species:S:1:pos:R:3:momenta:R:3:forces:R:3:Z:I:1:map_shift:I:3:n_neighb:I:1:force:R:3:local_energy:R:1:gap_var:R:1:gap_variance_gradient:R:3
C              -0.77249473      0.30497014     -0.03313750     -0.09931723     -0.14189494      0.24212349     -0.02221506      1.19881486      1.02986603       6       0       0       0      11     -0.69549915      0.21528250      0.56294593   -155.13131879      0.00391456      0.00677802     -0.00251553     -0.00056432
O              -0.14058646     -0.95029112     -0.16557503      1.01896820      0.55630284     -0.62722857     -0.20543439     -2.16837062     -0.67274042       8       0       0       0      12     -1.47729528     -0.73871491     -0.71630770   -437.53166666      0.00449243      0.01298428      0.00193881      0.00872432
H              -1.88943074      0.14078449      0.05384963      0.43815765      0.02858902      0.12535246      0.33411776     -0.24323899     -0.05505798       1       0       0       0      13      0.88205341      0.13182778     -0.18450475    -16.04892007      0.00321698     -0.00078024      0.00021887     -0.00013405
H               0.72941587     -1.00965906      0.21941997     -0.57315523     -0.22281661      0.42267672     -0.18171057      0.57680987     -0.14925659       1       0       0       0      11      1.27860807     -0.03139404      0.50288548    -15.28706309      0.00576308      0.00026884      0.00385955     -0.01070561
H              -0.46210396      0.85425410      0.88123396      0.04616807      0.02127070     -0.05067151     -0.54886834      0.77418629      0.01127514       1       0       0       0      13     -0.13566661      0.18944772     -0.02828021    -15.84287664      0.00392661      0.00043466      0.00048435     -0.00093473
H              -0.60424960      0.92991351     -0.92042426     -0.02248663     -0.28845300     -0.05493804      0.55387060     -0.23027721     -0.05748630       1       0       0       0      15      0.22591717      0.04582492     -0.08172008    -16.06301416      0.00382220      0.00434136     -0.00237932      0.00228480
H               3.13944963     -0.26997204     -0.03536676     -0.80833483      0.04700201     -0.05731455      0.07024001      0.09207580     -0.10659988       1       0       0       0       7     -0.07811760      0.18772602     -0.05501867    -14.29033971      0.00810084     -0.02402693     -0.00160673      0.00132959
7
EPS_SCF=0.00000100 energy=-670.20153218696441 units=gap_units Integrated_spin_density=0.00001924 opt_dir=/home/tks32/dft_pbe/apr_8_opt_fragments_subset/singlepoint_5_CH3OH time=7.00000000 free_energy=-670.01747785 cutoff=8.00000000 nneightol=1.20000000 pbc="T T T" Lattice="13.00000000       0.00000000       0.00000000       0.00000000       9.00000000       0.00000000       0.00000000       0.00000000       9.00000000" Properties=species:S:1:pos:R:3:momenta:R:3:forces:R:3:Z:I:1:map_shift:I:3:n_neighb:I:1:force:R:3:local_energy:R:1:gap_var:R:1:gap_variance_gradient:R:3
C              -0.76358652      0.30509024     -0.03686197     -0.04233945      0.01869316      0.44237282      1.34955858      1.22896122      0.87078848       6       0       0       0      11     -0.26568448      0.33876032      0.57441268   -155.10001134      0.00394176      0.00507040     -0.00232458     -0.00058117
O              -0.12320444     -0.94359570     -0.19180815      0.81485428      0.36009257     -0.80902528     -1.23538670     -2.19958970     -1.15411774       8       0       0       0      12     -1.15242628     -0.74263736     -0.65536053   -437.51065843      0.00451026      0.01147464      0.00219295      0.00855074
H              -1.86485378      0.13795453      0.05616617      0.49052446     -0.03664558      0.15399070     -1.21863835     -0.37214110      0.09641643       1       0       0       0      13      0.42435507      0.03269901     -0.15160446    -16.03878083      0.00320729      0.00023921      0.00037943     -0.00021169
H               0.72154051     -1.03208505      0.25486922     -0.47155674     -0.15261112      0.47160435      0.94766465      0.41880846      0.39344721       1       0       0       0      11      0.94172486      0.00094264      0.42067311    -15.28453594      0.00560720      0.00058112      0.00352508     -0.01034855
H              -0.45100514      0.85459660      0.88192925     -0.01409878      0.08236108     -0.09615703     -0.54021470      0.87538483      0.03901270       1       0       0       0      13     -0.23321700      0.18753352     -0.09373809    -15.86070256      0.00394738     -0.00102756      0.00084543     -0.00098702
H              -0.60620120      0.93684423     -0.92334955      0.02950822     -0.29464013     -0.08961615      0.33491975      0.04699573     -0.15184298       1       0       0       0      15      0.16818926      0.06271215     -0.04051692    -16.08942253      0.00382719      0.00406692     -0.00261653      0.00266981
H               3.08731057     -0.25880485     -0.04094496     -0.80689199      0.02275002     -0.07316941      0.36209678      0.00158056     -0.09370410       1       0       0       0       7      0.11705856      0.11998973     -0.05386579    -14.31742057      0.00889311     -0.02040473     -0.00200177      0.00090787
7
EPS_SCF=0.00000100 energy=-670.18604377233135 units=gap_units Integrated_spin_density=0.00001924 opt_dir=/home/tks32/dft_pbe/apr_8_opt_fragments_subset/singlepoint_5_CH3OH time=8.00000000 free_energy=-669.89044278 cutoff=8.00000000 nneightol=1.20000000 pbc="T T T" Lattice="13.00000000       0.00000000       0.00000000       0.00000000       9.00000000       0.00000000       0.00000000       0.00000000       9.00000000" Properties=species:S:1:pos:R:3:momenta:R:3:forces:R:3:Z:I:1:map_shift:I:3:n_neighb:I:1:force:R:3:local_energy:R:1:gap_var:R:1:gap_variance_gradient:R:3
C              -0.75304258      0.30554174     -0.03967590      0.21206286      0.10713370      0.48936341      2.50806108      1.19439908      0.56646539       6       0       0       0      11     -0.07229173      0.41415197      0.56954534   -155.08051258      0.00396210      0.00208346     -0.00189353     -0.00059708
O              -0.10352528     -0.93650459     -0.21723037      0.60921709      0.29093217     -0.92877475     -1.44929201     -2.24442891     -1.41883438       8       0       0       0      11     -0.85378634     -0.71909990     -0.57842257   -437.49111908      0.00451335      0.00866556      0.00198289      0.00819727
H              -1.84454122      0.13308377      0.05821619      0.31079649     -0.13939221      0.14347273     -2.73549180     -0.39542731      0.28151967       1       0       0       0      13      0.13134093     -0.02669560     -0.11914857    -16.02739804      0.00319692      0.00086997      0.00049619     -0.00027569
H               0.70997075     -1.05418754      0.28777754     -0.40906827     -0.12137689      0.53110908      1.38271707      0.26066927      0.76442265       1       0       0       0      11      0.67283268      0.02584213      0.34481465    -15.27892502      0.00550426      0.00065222      0.00331297     -0.00987953
H              -0.44009764      0.85695364      0.88188894     -0.06519827      0.15674865     -0.08242729     -0.44567724      0.93664890      0.09336567       1       0       0       0      13     -0.30467164      0.16805301     -0.13318305    -15.87687764      0.00395072     -0.00299064      0.00139196     -0.00078266
H              -0.60630217      0.94319272     -0.92472505      0.05415633     -0.29733045     -0.05864098      0.06131274      0.31686819     -0.22495594       1       0       0       0      14      0.09535941      0.09407944     -0.03216210    -16.10495200      0.00383672      0.00407999     -0.00290201      0.00304548
H               3.03753814     -0.24807974     -0.04625136     -0.71196623      0.00328503     -0.09410219      0.67837017     -0.06872922     -0.06198306       1       0       0       0       7      0.33121668      0.04366895     -0.05144370    -14.32625941      0.00939229     -0.01336056     -0.00238847      0.00029221
7
EPS_SCF=0.00000100 energy=-670.15369651585740 units=gap_units Integrated_spin_density=0.00001924 opt_dir=/home/tks32/dft_pbe/apr_8_opt_fragments_subset/singlepoint_5_CH3OH time=9.00000000 free_energy=-669.80819030 cutoff=8.00000000 nneightol=1.20000000 pbc="T T T" Lattice="13.00000000       0.00000000       0.00000000       0.00000000       9.00000000       0.00000000       0.00000000       0.00000000       9.00000000" Properties=species:S:1:pos:R:3:momenta:R:3:forces:R:3:Z:I:1:map_shift:I:3:n_neighb:I:1:force:R:3:local_energy:R:1:gap_var:R:1:gap_variance_gradient:R:3
C              -0.74032996      0.30635743     -0.04162346      0.25296756      0.13958671      0.50205644      2.80213158      1.07272115      0.39312570       6       0       0       0      11     -0.23015369      0.42024596      0.55918533   -155.07632104      0.00396478     -0.00110634     -0.00137985     -0.00061125
O              -0.08107751     -0.92881978     -0.24161424      0.69648803      0.07979719     -0.99682625     -1.05775927     -2.27189670     -1.37276847       8       0       0       0      12     -0.62771724     -0.67009949     -0.51623594   -437.47429119      0.00449213      0.00538918      0.00135604      0.00778903
H              -1.83059658      0.12589042      0.06024067      0.05966739     -0.13288842      0.20443077     -3.39498956     -0.35205006      0.37457447       1       0       0       0      13      0.11051302     -0.02719079     -0.10129569    -16.01887081      0.00317988      0.00098835      0.00056101     -0.00030278
H               0.69482136     -1.07549569      0.31781452     -0.29712038     -0.10076583      0.62230580      1.22817775      0.17955713      0.85955409       1       0       0       0      13      0.48922899      0.02907335      0.30639811    -15.27178998      0.00544305      0.00058300      0.00328440     -0.00946836
H              -0.42899023      0.86115710      0.88070249     -0.08642346      0.25570079     -0.08442992     -0.29402128      0.90937968      0.12947721       1       0       0       0      13     -0.33522129      0.13406325     -0.13857960    -15.88975053      0.00393871     -0.00464022      0.00190838     -0.00046900
H              -0.60410448      0.94896618     -0.92437177      0.02112068     -0.26838729     -0.10274659     -0.14880187      0.56234619     -0.35277543       1       0       0       0      14      0.01457699      0.14166240     -0.06309470    -16.10871044      0.00385085      0.00318520     -0.00278574      0.00305258
H               2.99027740     -0.23805565     -0.05114822     -0.64669982      0.02695685     -0.14479025      0.86526264     -0.10005738     -0.03118757       1       0       0       0       8      0.57877322     -0.02775467     -0.04637751    -14.31396253      0.00945852     -0.00439916     -0.00294423      0.00000978
7
EPS_SCF=0.00000100 energy=-670.11232937100522 units=gap_units Integrated_spin_density=0.00001924 opt_dir=/home/tks32/dft_pbe/apr_8_opt_fragments_subset/singlepoint_5_CH3OH time=10.00000000 free_energy=-669.84761833 cutoff=8.00000000 nneightol=1.20000000 pbc="T T T" Lattice="13.00000000       0.00000000       0.00000000       0.00000000       9.00000000       0.00000000       0.00000000       0.00000000       9.00000000" Properties=species:S:1:pos:R:3:momenta:R:3:forces:R:3:Z:I:1:map_shift:I:3:n_neighb:I:1:force:R:3:local_energy:R:1:gap_var:R:1:gap_variance_gradient:R:3
C              -0.72728285      0.30729953     -0.04272329      0.50167626      0.24066968      0.47538861      1.77010155      0.89548828      0.41943903       6       0       0       0      12     -0.41977855      0.39340235      0.52749180   -155.07667259      0.00395181     -0.00354786     -0.00095293     -0.00061630
O              -0.05709853     -0.92123039     -0.26486389      0.70939575     -0.11562789     -1.04656275     -0.11634876     -2.29149383     -0.80810805       8       0       0       0      12     -0.42650989     -0.58302191     -0.43673668   -437.46383819      0.00444430      0.00250261      0.00054733      0.00731924
H              -1.81756852      0.11732331      0.06182702     -0.27333333     -0.16629365      0.24585579     -2.62440417     -0.19181193      0.22801320       1       0       0       0      13      0.13795742     -0.01422179     -0.08233485    -16.01034685      0.00316281      0.00102760      0.00063033     -0.00031917