7
EPS_SCF=0.00000100 energy=-670.06878768955676 units=gap_units Integrated_spin_density=0.00001924 opt_dir=/home/tks32/dft_pbe/apr_8_opt_fragments_subset/singlepoint_5_CH3OH time=0.00000000 free_energy=-670.06878769 cutoff=8.00000000 nneightol=1.20000000 pbc="T T T" Lattice="13.00000000       0.00000000       0.00000000       0.00000000       9.00000000       0.00000000       0.00000000       0.00000000       9.00000000" Properties=species:S:1:pos:R:3:momenta:R:3:forces:R:3:Z:I:1:map_shift:I:3:n_neighb:I:1:force:R:3:local_energy:R:1:gap_var:R:1:gap_variance_gradient:R:3
C              -0.85170330      0.30253923      0.00463343      5.45576389     -0.78295391     -0.42330267     -0.12734795     -0.05430427     -0.00006388       6       0       0       0      12     -0.12734797     -0.05430433     -0.00006393   -155.22920908      0.00318012      0.00225068     -0.00114359     -0.00004332
O              -0.23928017     -0.99555437     -0.00239197      6.08037964      1.18098515     -0.51859695     -0.37016440      0.17051029      0.01590349       8       0       0       0      12     -0.37016421      0.17051024      0.01590349   -437.70340651      0.00458390      0.00606563      0.00258297     -0.00068999
H              -1.93557585      0.13626839      0.02907194     -0.04505419      0.01870235      0.27550326     -0.14037653      0.17003808      0.00340453       1       0       0       0      13     -0.14037652      0.17003809      0.00340451    -16.06612243      0.00326814      0.00082746     -0.00048944     -0.00003205
H               0.72321841     -0.86855210     -0.02397487      0.87220168     -0.41663278      0.71450882      0.59833135     -0.25716188     -0.03308861       1       0       0       0      12      0.59833115     -0.25716187     -0.03308860    -15.23775568      0.00669922     -0.00504971      0.00081005      0.00097226
H              -0.57174008      0.89244562      0.89290117      0.63788730     -0.13487010     -0.04519662      0.07899639     -0.06650139      0.08263577       1       0       0       0      15      0.07899642     -0.06650133      0.08263587    -15.89439689      0.00321213      0.00184937     -0.00118747     -0.00152032
H              -0.61083911      0.88370095     -0.90069729      0.06259361      0.13476928     -0.00291584      0.06889960     -0.07351054     -0.07606432       1       0       0       0      15      0.06889960     -0.07351051     -0.07606437    -15.89075025      0.00316167      0.00095124     -0.00084913      0.00133826
H               3.48592011     -0.35084770      0.00045760     -0.36793659      0.00000000      0.00000000     -0.10833847      0.11092971      0.00727303       1       0       0       0       7     -0.10833847      0.11092971      0.00727303    -14.04714685      0.00406496     -0.00689467      0.00027662     -0.00002483
7
EPS_SCF=0.00000100 energy=-670.04982761588940 units=gap_units Integrated_spin_density=0.00001924 opt_dir=/home/tks32/dft_pbe/apr_8_opt_fragments_subset/singlepoint_5_CH3OH time=1.00000000 free_energy=-670.04236253 cutoff=8.00000000 nneightol=1.20000000 pbc="T T T" Lattice="13.00000000       0.00000000       0.00000000       0.00000000       9.00000000       0.00000000       0.00000000       0.00000000       9.00000000" Properties=species:S:1:pos:R:3:momenta:R:3:forces:R:3:Z:I:1:map_shift:I:3:n_neighb:I:1:force:R:3:local_energy:R:1:gap_var:R:1:gap_variance_gradient:R:3
C              -0.83169029      0.30385720     -0.00076935      0.60541121     -0.74998533     -0.29786063     -1.16895704      0.04965002      0.25425372       6       0       0       0      12     -1.11544262     -0.20390992      0.08332570   -155.26230501      0.00328857      0.00653023     -0.00178916     -0.00016599
O              -0.22246235     -0.99081246     -0.02910003      0.17932296      1.08621745     -0.58428125      1.16248378     -0.04453088     -0.09334345       8       0       0       0      12     -1.46417368     -0.07863189     -0.05421438   -437.66116164      0.00462286      0.00645824      0.00148940      0.00154929
H              -1.95101978      0.13751951      0.03314229     -0.37059482      0.11145640      0.28244096      1.21037740      0.25414935     -0.08043303       1       0       0       0      13      1.01018575      0.33491342     -0.05372561    -16.07253114      0.00324386     -0.00132655     -0.00062123     -0.00000475
H               0.72200669     -0.89293851      0.01473084      0.42679671     -0.45185919      0.71915281     -1.25952584     -0.20191175     -0.07710776       1       0       0       0      12      1.59089288     -0.12990199      0.06952369    -15.24191498      0.00665605     -0.00515795      0.00191762     -0.00197386
H              -0.54822599      0.88665036      0.88833937      0.22061079     -0.12014507     -0.04133542      0.07569801     -0.00256622      0.07133197       1       0       0       0      15      0.10281649     -0.06588948      0.13713587    -15.85979963      0.00339739      0.00357849     -0.00120927     -0.00130770
H              -0.59998921      0.88925546     -0.90030486     -0.31490715      0.11583132     -0.04430264      0.19507674     -0.25054890     -0.06905611       1       0       0       0      15      0.08369768     -0.02390505     -0.17852308    -15.89012728      0.00328114      0.00330776     -0.00135021      0.00140287
H               3.43138094     -0.33353156     -0.00603826     -0.74663970      0.00848441     -0.03381383     -0.21515305      0.19575838     -0.00564535       1       0       0       0       7     -0.20797650      0.16732492     -0.00352218    -14.06198793      0.00450119     -0.01339021      0.00156284      0.00050013
7
EPS_SCF=0.00000100 energy=-670.01346645315823 units=gap_units Integrated_spin_density=0.00001924 opt_dir=/home/tks32/dft_pbe/apr_8_opt_fragments_subset/singlepoint_5_CH3OH time=2.00000000 free_energy=-669.92642817 cutoff=8.00000000 nneightol=1.20000000 pbc="T T T" Lattice="13.00000000       0.00000000       0.00000000       0.00000000       9.00000000       0.00000000       0.00000000       0.00000000       9.00000000" Properties=species:S:1:pos:R:3:momenta:R:3:forces:R:3:Z:I:1:map_shift:I:3:n_neighb:I:1:force:R:3:local_energy:R:1:gap_var:R:1:gap_variance_gradient:R:3
C              -0.81380206      0.30485992     -0.00612522      0.40784524     -0.66489645     -0.35241116     -1.64099982      0.27523659      0.46399183       6       0       0       0      12     -1.65037755     -0.30233700      0.17204027   -155.26537350      0.00347181      0.00950848     -0.00229611     -0.00027657
O              -0.20639464     -0.98630668     -0.05601099      0.36970388      1.11225934     -0.44399823      2.18965154     -0.40889963     -0.04987043       8       0       0       0      12     -2.33177215     -0.23041394     -0.25953381   -437.61886338      0.00460083      0.00790319      0.00061068      0.00401010
H              -1.95969420      0.13875695      0.03709479     -0.23792528      0.06958833      0.22582726      1.94182664      0.24376188     -0.15988214       1       0       0       0      13      1.69815399      0.43049043     -0.10694746    -16.06332775      0.00324927     -0.00291623     -0.00065253      0.00002164
H               0.72070714     -0.91661985      0.05353087      0.25243030     -0.43434371      0.68875403     -2.43423291     -0.00096747     -0.30709959       1       0       0       0      12      2.41271610     -0.07955250      0.29340585    -15.24312140      0.00657797     -0.00517812      0.00296174     -0.00514994
H              -0.52649283      0.88131865      0.88468761      0.22646736     -0.14271661     -0.03543513      0.05866101      0.08892290      0.02005654       1       0       0       0      15      0.13658805     -0.06246378      0.16769093    -15.83803645      0.00360745      0.00353072     -0.00074049     -0.00086592
H              -0.59137769      0.89506182     -0.90073717     -0.28655100      0.04142862     -0.05436858      0.31956868     -0.45221119      0.04255273       1       0       0       0      15      0.11123570      0.02291231     -0.25510985    -15.89796501      0.00344835      0.00469106     -0.00160701      0.00138687
H               3.37705427     -0.31707081     -0.01243989     -0.73197050      0.01868047     -0.02836819     -0.43447513      0.25415692     -0.00974894       1       0       0       0       7     -0.37654414      0.22136447     -0.01154594    -14.08677897      0.00504270     -0.01753910      0.00172371      0.00087382
7
EPS_SCF=0.00000100 energy=-670.00849732682184 units=gap_units Integrated_spin_density=0.00001924 opt_dir=/home/tks32/dft_pbe/apr_8_opt_fragments_subset/singlepoint_5_CH3OH time=3.00000000 free_energy=-669.86342740 cutoff=8.00000000 nneightol=1.20000000 pbc="T T T" Lattice="13.00000000       0.00000000       0.00000000       0.00000000       9.00000000       0.00000000       0.00000000       0.00000000       9.00000000" Properties=species:S:1:pos:R:3:momenta:R:3:forces:R:3:Z:I:1:map_shift:I:3:n_neighb:I:1:force:R:3:local_energy:R:1:gap_var:R:1:gap_variance_gradient:R:3
C              -0.79976511      0.30519923     -0.01143294      0.24206383     -0.66818567     -0.23142061     -1.73376804      0.54086872      0.71512896       6       0       0       0      12     -1.77693609     -0.32383950      0.25647899   -155.25169975      0.00365766      0.01055907     -0.00258518     -0.00036316
O              -0.19037089     -0.98193068     -0.08330247      0.63544674      1.10736623     -0.40817199      2.46118348     -0.90004006     -0.01518832       8       0       0       0      12     -2.86772674     -0.27747917     -0.53560648   -437.58603859      0.00455724      0.01009536      0.00022650      0.00633222
H              -1.95693515      0.13880614      0.04048199     -0.01826064      0.07331815      0.18538303      2.15571171      0.17102914     -0.20894337       1       0       0       0      13      1.93694193      0.44749464     -0.14675978    -16.05410888      0.00325319     -0.00352205     -0.00058718      0.00003336
H               0.71987967     -0.93636556      0.09308922     -0.06159485     -0.41842329      0.60761589     -2.68779689      0.23758222     -0.53202732       1       0       0       0      12      2.93470692     -0.09052765      0.57732101    -15.24177675      0.00645344     -0.00491656      0.00367535     -0.00809624
H              -0.50877991      0.87691914      0.88274671      0.23756117     -0.11314631     -0.05205079     -0.02843754      0.23700937     -0.02803200       1       0       0       0      15      0.15130028     -0.06370838      0.15080919    -15.83182967      0.00376405      0.00249880     -0.00006731     -0.00040810
H              -0.58716321      0.90153636     -0.90249686     -0.23199520     -0.00887299     -0.06046480      0.45033275     -0.54749018      0.08728579       1       0       0       0      15      0.15213080      0.05166040     -0.28096917    -15.91804205      0.00360266      0.00502821     -0.00166249      0.00133762
H               3.32313460     -0.30416463     -0.01908566     -0.80322104      0.02794387     -0.04089073     -0.61722546      0.26104079     -0.01822374       1       0       0       0       7     -0.53041710      0.25639965     -0.02127375    -14.12500164      0.00560920     -0.01974283      0.00100033      0.00116430
7
EPS_SCF=0.00000100 energy=-670.05524588772369 units=gap_units Integrated_spin_density=0.00001924 opt_dir=/home/tks32/dft_pbe/apr_8_opt_fragments_subset/singlepoint_5_CH3OH time=4.00000000 free_energy=-669.92141924 cutoff=8.00000000 nneightol=1.20000000 pbc="T T T" Lattice="13.00000000       0.00000000       0.00000000       0.00000000       9.00000000       0.00000000       0.00000000       0.00000000       9.00000000" Properties=species:S:1:pos:R:3:momenta:R:3:forces:R:3:Z:I:1:map_shift:I:3:n_neighb:I:1:force:R:3:local_energy:R:1:gap_var:R:1:gap_variance_gradient:R:3
C              -0.79016993      0.30484559     -0.01660930      0.09695241     -0.46829551     -0.05211312     -1.49988412      0.93600013      0.87179218       6       0       0       0      12     -1.56488322     -0.25564905      0.32736633   -155.22943799      0.00379603      0.01003595     -0.00269584     -0.00042183
O              -0.17456877     -0.97777400     -0.11097499      0.79128003      0.88555330     -0.50905168      2.06219386     -1.44101877     -0.07527736       8       0       0       0      12     -2.92646791     -0.23672977     -0.76430194   -437.56757130      0.00451865      0.01197946      0.00026006      0.00812561
H              -1.94054851      0.13785219      0.04303550      0.21668213      0.08299046      0.13480893      1.98089256      0.04138260     -0.20245465       1       0       0       0      13      1.78493583      0.38660853     -0.16646148    -16.05245296      0.00323567     -0.00294952     -0.00043103      0.00002036
H               0.71894649     -0.95278099      0.13342678     -0.34263919     -0.36304526      0.51056024     -2.27610134      0.45223242     -0.62984087       1       0       0       0      11      2.98759987     -0.13467481      0.80775207    -15.24082379      0.00627361     -0.00429391      0.00400841     -0.01035505
H              -0.49554542      0.87370107      0.88279235      0.21550134     -0.07597154     -0.03326313     -0.24057371      0.39705175     -0.07049895       1       0       0       0      14      0.12355629     -0.07352570      0.07703354    -15.84002231      0.00384680      0.00122167      0.00055203     -0.00013083
H              -0.58794241      0.90875933     -0.90565321     -0.14069241     -0.07464127     -0.04621662      0.56097160     -0.60564839      0.15536527       1       0       0       0      15      0.19331602      0.05604443     -0.24768634    -15.95069675      0.00371249      0.00489696     -0.00173965      0.00143470
H               3.26982855     -0.29460319     -0.02601713     -0.83708431      0.01340981     -0.00472463     -0.58749885      0.22000027     -0.04908562       1       0       0       0       7     -0.59805688      0.25792635     -0.03370218    -14.17424079      0.00619278     -0.02089062      0.00004601      0.00132703
7
EPS_SCF=0.00000100 energy=-670.12130327951434 units=gap_units Integrated_spin_density=0.00001924 opt_dir=/home/tks32/dft_pbe/apr_8_opt_fragments_subset/singlepoint_5_CH3OH time=5.00000000 free_energy=-670.02465497 cutoff=8.00000000 nneightol=1.20000000 pbc="T T T" Lattice="13.00000000       0.00000000       0.00000000       0.00000000       9.00000000       0.00000000       0.00000000       0.00000000       9.00000000" Properties=species:S:1:pos:R:3:momenta:R:3:forces:R:3:Z:I:1:map_shift:I:3:n_neighb:I:1:force:R:3:local_energy:R:1:gap_var:R:1:gap_variance_gradient:R:3
C              -0.78273571      0.30431031     -0.02152988     -0.01055651     -0.24397781      0.15214617     -1.04321306      1.12087678      0.95255800       6       0       0       0      12     -1.16175550     -0.13614999      0.37893005   -155.19929912      0.00387706      0.00849876     -0.00263980     -0.00045674
O              -0.15881873     -0.97340293     -0.13868481      0.88302482      0.70608064     -0.59884458      1.03278913     -1.91114048     -0.28736088       8       0       0       0      12     -2.76042753     -0.18017237     -0.88966545   -437.55625005      0.00450150      0.01418448      0.00072470      0.00921274
H              -1.91648415      0.13646302      0.04518570      0.36769236      0.03634687      0.09026527      1.41385443     -0.09799378     -0.14617224       1       0       0       0      13      1.38873511      0.27790587     -0.16545902    -16.05231622      0.00321275     -0.00176193     -0.00022905     -0.00000987
H               0.71627611     -0.96963132      0.17337714     -0.47288385     -0.30471476      0.48093729     -1.38005779      0.58717715     -0.51881554       1       0       0       0      11      2.71699128     -0.17892332      0.92674302    -15.24194573      0.00605592     -0.00353536      0.00407963     -0.01165832
H              -0.48432097      0.87159301      0.88364675      0.14724989     -0.04209193     -0.05149219     -0.42520042      0.62474879      0.00325695       1       0       0       0      14      0.05561118     -0.07942305     -0.01576141    -15.85554364      0.00387094      0.00044663      0.00090069     -0.00017290
H              -0.59130381      0.91634166     -0.90924462     -0.07521088     -0.18029304     -0.03109141      0.63179461     -0.49028555      0.08442848       1       0       0       0      15      0.21821349      0.05269227     -0.19154604    -15.98847608      0.00378392      0.00465115     -0.00191404      0.00171006
H               3.21738727     -0.28567375     -0.03275028     -0.83931582      0.02865003     -0.04192054     -0.22996690      0.16661709     -0.08789477       1       0       0       0       7     -0.45736803      0.24407059     -0.04324116    -14.22747244      0.00683915     -0.02248373     -0.00092215      0.00137503
7
EPS_SCF=0.00000100 energy=-670.16980524763630 units=gap_units Integrated_spin_density=0.00001924 opt_dir=/home/tks32/dft_pbe/apr_8_opt_fragments_subset/singlepoint_5_CH3OH time=6.00000000 free_energy=-670.07476078 cutoff=8.00000000 nneightol=1.20000000 pbc="T T T" Lattice="13.00000000       0.00000000       0.00000000       0.00000000       9.00000000       0.00000000       0.00000000       0.00000000       9.00000000" Properties=species:S:1:pos:R:3:momenta:R:3:forces:R:3:Z:I:1:map_shift:I:3:n_neighb:I:1:force:R:3:local_energy:R:1:gap_var:R:1:gap_variance_gradient:R:3
C              -0.77577479      0.30389585     -0.02611433     -0.09931723     -0.14189494      0.24212349     -0.02221506      1.19881486      1.02986603       6       0       0       0      12     -0.65701083     -0.00095807      0.40877132   -155.16232798      0.00390197      0.00687509     -0.00252135     -0.00047476
O              -0.14226055     -0.96837562     -0.16605959      1.01896820      0.55630284     -0.62722857     -0.20543439     -2.16837062     -0.67274042       8       0       0       0      12     -2.49136214     -0.12627042     -0.91294709   -437.54369302      0.00451233      0.01514896      0.00116957      0.00966707
H              -1.88984372      0.13435700      0.04700890      0.43815765      0.02858902      0.12535246      0.33411776     -0.24323899     -0.05505798       1       0       0       0      13      0.85819190      0.14752925     -0.14414572    -16.04783974      0.00319811     -0.00044250     -0.00001947     -0.00005455
H               0.71118016     -0.98789838      0.21234432     -0.57315523     -0.22281661      0.42267672     -0.18171057      0.57680987     -0.14925659       1       0       0       0      11      2.29521659     -0.20986972      0.93875493    -15.24332816      0.00584152     -0.00274440      0.00403853     -0.01214973
H              -0.47381088      0.87056062      0.88451437      0.04616807      0.02127070     -0.05067151     -0.54886834      0.77418629      0.01127514       1       0       0       0      14     -0.02930653     -0.08207271     -0.10524930    -15.87303072      0.00389386      0.00087544      0.00078129     -0.00064821
H              -0.59551266      0.92410001     -0.91247614     -0.02248663     -0.28845300     -0.05493804      0.55387060     -0.23027721     -0.05748630       1       0       0       0      15      0.21393263      0.05442450     -0.14050919    -16.02512417      0.00382374      0.00430656     -0.00213942      0.00209035
H               3.16602244     -0.27663948     -0.03921754     -0.80833483      0.04700201     -0.05731455      0.07024001      0.09207580     -0.10659988       1       0       0       0       7     -0.18966162      0.21721716     -0.04467496    -14.27446146      0.00760479     -0.02401915     -0.00130915      0.00156984
7
EPS_SCF=0.00000100 energy=-670.18842014324866 units=gap_units Integrated_spin_density=0.00001924 opt_dir=/home/tks32/dft_pbe/apr_8_opt_fragments_subset/singlepoint_5_CH3OH time=7.00000000 free_energy=-670.01747785 cutoff=8.00000000 nneightol=1.20000000 pbc="T T T" Lattice="13.00000000       0.00000000       0.00000000       0.00000000       9.00000000       0.00000000       0.00000000       0.00000000       9.00000000" Properties=species:S:1:pos:R:3:momenta:R:3:forces:R:3:Z:I:1:map_shift:I:3:n_neighb:I:1:force:R:3:local_energy:R:1:gap_var:R:1:gap_variance_gradient:R:3
C              -0.76812034      0.30380026     -0.03028311     -0.04233945      0.01869316      0.44237282      1.34955858      1.22896122      0.87078848       6       0       0       0      12     -0.12390832      0.11158352      0.42044186   -155.12510017      0.00392304      0.00603841     -0.00245792     -0.00048635
O              -0.12402494     -0.96240825     -0.19272276      0.81485428      0.36009257     -0.80902528     -1.23538670     -2.19958970     -1.15411774       8       0       0       0      11     -2.13638315     -0.06425389     -0.86729835   -437.52766121      0.00453285      0.01437497      0.00133083      0.00966213
H              -1.86445259      0.13113157      0.04856513      0.49052446     -0.03664558      0.15399070     -1.21863835     -0.37214110      0.09641643       1       0       0       0      13      0.33221487      0.02506451     -0.11065070    -16.03802075      0.00319212      0.00068667      0.00018037     -0.00010963
H               0.70333482     -1.00766363      0.24976897     -0.47155674     -0.15261112      0.47160435      0.94766465      0.41880846      0.39344721       1       0       0       0      11      1.85661897     -0.22413106      0.88452929    -15.24311427      0.00566589     -0.00203630      0.00398160     -0.01210030
H              -0.46325131      0.87061472      0.88484512     -0.01409878      0.08236108     -0.09615703     -0.54021470      0.87538483      0.03901270       1       0       0       0      14     -0.12593487     -0.08104100     -0.17346571    -15.88905047      0.00392244      0.00021721      0.00094305     -0.00089309
H              -0.59938408      0.93191928     -0.91481330      0.02950822     -0.29464013     -0.08961615      0.33491975      0.04699573     -0.15184298       1       0       0       0      14      0.17498766      0.06533655     -0.10978467    -16.05607986      0.00383446      0.00367121     -0.00229704      0.00244217
H               3.11589844     -0.26739396     -0.04536004     -0.80689199      0.02275002     -0.07316941      0.36209678      0.00158056     -0.09370410       1       0       0       0       7      0.02240485      0.16744138     -0.04377172    -14.30939342      0.00840993     -0.02295218     -0.00168089      0.00148507
7
EPS_SCF=0.00000100 energy=-670.18354121292191 units=gap_units Integrated_spin_density=0.00001924 opt_dir=/home/tks32/dft_pbe/apr_8_opt_fragments_subset/singlepoint_5_CH3OH time=8.00000000 free_energy=-669.89044278 cutoff=8.00000000 nneightol=1.20000000 pbc="T T T" Lattice="13.00000000       0.00000000       0.00000000       0.00000000       9.00000000       0.00000000       0.00000000       0.00000000       9.00000000" Properties=species:S:1:pos:R:3:momenta:R:3:forces:R:3:Z:I:1:map_shift:I:3:n_neighb:I:1:force:R:3:local_energy:R:1:gap_var:R:1:gap_variance_gradient:R:3
C              -0.75886659      0.30416154     -0.03397926      0.21206286      0.10713370      0.48936341      2.50806108      1.19439908      0.56646539       6       0       0       0      12      0.21551864      0.17967904      0.42528104   -155.09717791      0.00394699      0.00382208     -0.00212582     -0.00049211
O              -0.10337295     -0.95527380     -0.21829126      0.60921709      0.29093217     -0.92877475     -1.44929201     -2.24442891     -1.41883438       8       0       0       0      11     -1.75875770      0.00630510     -0.79862269   -437.51043116      0.00454577      0.01202424      0.00107514      0.00938466
H              -1.84349040      0.12634526      0.05000976      0.31079649     -0.13939221      0.14347273     -2.73549180     -0.39542731      0.28151967       1       0       0       0      13     -0.02799965     -0.05914851     -0.07617581    -16.02677803      0.00318675      0.00139157      0.00035608     -0.00016235
H               0.69264782     -1.02859034      0.28502407     -0.40906827     -0.12137689      0.53110908      1.38271707      0.26066927      0.76442265       1       0       0       0      11      1.47924566     -0.22920103      0.81536522    -15.24060160      0.00554357     -0.00147598      0.00397400     -0.01178329
H              -0.45209414      0.87175766      0.88420643     -0.06519827      0.15674865     -0.08242729     -0.44567724      0.93664890      0.09336567       1       0       0       0      14     -0.21953396     -0.07948850     -0.21078507    -15.90112045      0.00394170     -0.00137434      0.00138384     -0.00082793
H              -0.60196247      0.93968572     -0.91590708      0.05415633     -0.29733045     -0.05864098      0.06131274      0.31686819     -0.22495594       1       0       0       0      14      0.12055964      0.08568290     -0.10842532    -16.07806764      0.00383727      0.00422069     -0.00279929      0.00301312
H               3.06713873     -0.25808604     -0.05106266     -0.71196623      0.00328503     -0.09410219      0.67837017     -0.06872922     -0.06198306       1       0       0       0       7      0.19096737      0.09617100     -0.04663737    -14.32936443      0.00907336     -0.01860827     -0.00186396      0.00086791
7
EPS_SCF=0.00000100 energy=-670.16276135901319 units=gap_units Integrated_spin_density=0.00001924 opt_dir=/home/tks32/dft_pbe/apr_8_opt_fragments_subset/singlepoint_5_CH3OH time=9.00000000 free_energy=-669.80819030 cutoff=8.00000000 nneightol=1.20000000 pbc="T T T" Lattice="13.00000000       0.00000000       0.00000000       0.00000000       9.00000000       0.00000000       0.00000000       0.00000000       9.00000000" Properties=species:S:1:pos:R:3:momenta:R:3:forces:R:3:Z:I:1:map_shift:I:3:n_neighb:I:1:force:R:3:local_energy:R:1:gap_var:R:1:gap_variance_gradient:R:3
C              -0.74743670      0.30505837     -0.03717199      0.25296756      0.13958671      0.50205644      2.80213158      1.07272115      0.39312570       6       0       0       0      12      0.18539988      0.18433152      0.43636983   -155.08572108      0.00395943      0.00077003     -0.00159977     -0.00049988
O              -0.07986115     -0.94681136     -0.24241207      0.69648803      0.07979719     -0.99682625     -1.05775927     -2.27189670     -1.37276847       8       0       0       0      12     -1.45645972      0.07079249     -0.74576877   -437.49407378      0.00453687      0.00867413      0.00040432      0.00896955
H              -1.82915836      0.11964064      0.05153238      0.05966739     -0.13288842      0.20443077     -3.39498956     -0.35205006      0.37457447       1       0       0       0      13     -0.09830278     -0.08142962     -0.05405215    -16.01936348      0.00317402      0.00153897      0.00049077     -0.00019362
H               0.67920518     -1.05018646      0.31753270     -0.29712038     -0.10076583      0.62230580      1.22817775      0.17955713      0.85955409       1       0       0       0      12      1.18657365     -0.23596617      0.76921643    -15.23655078      0.00546860     -0.00105403      0.00404218     -0.01138156
H              -0.44001046      0.87394513      0.88231436     -0.08642346      0.25570079     -0.08442992     -0.29402128      0.90937968      0.12947721       1       0       0       0      14     -0.29200823     -0.07914652     -0.21138498    -15.90777620      0.00394387     -0.00331404      0.00196033     -0.00051499
H              -0.60255529      0.94729661     -0.91559535      0.02112068     -0.26838729     -0.10274659     -0.14880187      0.56234619     -0.35277543       1       0       0       0      14      0.05464445      0.12093626     -0.14516795    -16.08930260      0.00384725      0.00383859     -0.00290014      0.00322406
H               3.01981679     -0.24894293     -0.05620003     -0.64669982      0.02695685     -0.14479025      0.86526264     -0.10005738     -0.03118757       1       0       0       0       7      0.42015274      0.02048204     -0.04921240    -14.32997343      0.00940086     -0.01045365     -0.00239769      0.00039644
7
EPS_SCF=0.00000100 energy=-670.12962253252920 units=gap_units Integrated_spin_density=0.00001924 opt_dir=/home/tks32/dft_pbe/apr_8_opt_fragments_subset/singlepoint_5_CH3OH time=10.00000000 free_energy=-669.84761833 cutoff=8.00000000 nneightol=1.20000000 pbc="T T T" Lattice="13.00000000       0.00000000       0.00000000       0.00000000       9.00000000       0.00000000       0.00000000       0.00000000       9.00000000" Properties=species:S:1:pos:R:3:momenta:R:3:forces:R:3:Z:I:1:map_shift:I:3:n_neighb:I:1:force:R:3:local_energy:R:1:gap_var:R:1:gap_variance_gradient:R:3
C              -0.73497735      0.30633938     -0.03983546      0.50167626      0.24066968      0.47538861      1.77010155      0.89548828      0.41943903       6       0       0       0      12     -0.03127817      0.14941396      0.44763431   -155.08389109      0.00395515     -0.00222938     -0.00103817     -0.00051929
O              -0.05438557     -0.93748090     -0.26489921      0.70939575     -0.11562789     -1.04656275     -0.11634876     -2.29149383     -0.80810805       8       0       0       0      12     -1.18292488      0.13533959     -0.68577690   -437.48246292      0.00449732      0.00519782     -0.00047376      0.00843024
H              -1.81814071      0.11149415      0.05294709     -0.27333333     -0.16629365      0.24585579     -2.62440417     -0.19181193      0.22801320       1       0       0       0      13     -0.01781844     -0.06710367     -0.03884616    -16.01419957      0.00315791      0.00141362      0.00060816     -0.00021187