7
EPS_SCF=0.00000100 energy=-670.06878768955676 units=gap_units Integrated_spin_density=0.00001924 opt_dir=/home/tks32/dft_pbe/apr_8_opt_fragments_subset/singlepoint_5_CH3OH time=0.00000000 free_energy=-670.06878769 cutoff=8.00000000 nneightol=1.20000000 pbc="T T T" Lattice="13.00000000       0.00000000       0.00000000       0.00000000       9.00000000       0.00000000       0.00000000       0.00000000       9.00000000" Properties=species:S:1:pos:R:3:momenta:R:3:forces:R:3:Z:I:1:map_shift:I:3:n_neighb:I:1:force:R:3:local_energy:R:1:gap_var:R:1:gap_variance_gradient:R:3
C              -0.85170330      0.30253923      0.00463343      5.45576389     -0.78295391     -0.42330267     -0.12734795     -0.05430427     -0.00006388       6       0       0       0      12     -0.12734797     -0.05430433     -0.00006393   -155.22920908      0.00318012      0.00225068     -0.00114359     -0.00004332
O              -0.23928017     -0.99555437     -0.00239197      6.08037964      1.18098515     -0.51859695     -0.37016440      0.17051029      0.01590349       8       0       0       0      12     -0.37016421      0.17051024      0.01590349   -437.70340651      0.00458390      0.00606563      0.00258297     -0.00068999
H              -1.93557585      0.13626839      0.02907194     -0.04505419      0.01870235      0.27550326     -0.14037653      0.17003808      0.00340453       1       0       0       0      13     -0.14037652      0.17003809      0.00340451    -16.06612243      0.00326814      0.00082746     -0.00048944     -0.00003205
H               0.72321841     -0.86855210     -0.02397487      0.87220168     -0.41663278      0.71450882      0.59833135     -0.25716188     -0.03308861       1       0       0       0      12      0.59833115     -0.25716187     -0.03308860    -15.23775568      0.00669922     -0.00504971      0.00081005      0.00097226
H              -0.57174008      0.89244562      0.89290117      0.63788730     -0.13487010     -0.04519662      0.07899639     -0.06650139      0.08263577       1       0       0       0      15      0.07899642     -0.06650133      0.08263587    -15.89439689      0.00321213      0.00184937     -0.00118747     -0.00152032
H              -0.61083911      0.88370095     -0.90069729      0.06259361      0.13476928     -0.00291584      0.06889960     -0.07351054     -0.07606432       1       0       0       0      15      0.06889960     -0.07351051     -0.07606437    -15.89075025      0.00316167      0.00095124     -0.00084913      0.00133826
H               3.48592011     -0.35084770      0.00045760     -0.36793659      0.00000000      0.00000000     -0.10833847      0.11092971      0.00727303       1       0       0       0       7     -0.10833847      0.11092971      0.00727303    -14.04714685      0.00406496     -0.00689467      0.00027662     -0.00002483
7
EPS_SCF=0.00000100 energy=-670.07727024280007 units=gap_units Integrated_spin_density=0.00001924 opt_dir=/home/tks32/dft_pbe/apr_8_opt_fragments_subset/singlepoint_5_CH3OH time=1.00000000 free_energy=-670.04236253 cutoff=8.00000000 nneightol=1.20000000 pbc="T T T" Lattice="13.00000000       0.00000000       0.00000000       0.00000000       9.00000000       0.00000000       0.00000000       0.00000000       9.00000000" Properties=species:S:1:pos:R:3:momenta:R:3:forces:R:3:Z:I:1:map_shift:I:3:n_neighb:I:1:force:R:3:local_energy:R:1:gap_var:R:1:gap_variance_gradient:R:3
C              -0.83548674      0.30149360     -0.00794060      0.60541121     -0.74998533     -0.29786063     -1.16895704      0.04965002      0.25425372       6       0       0       0      12     -0.91853974      0.04752051      0.20713938   -155.22043801      0.00328792      0.00585223     -0.00167470     -0.00020893
O              -0.22386843     -0.98291873     -0.02730773      0.17932296      1.08621745     -0.58428125      1.16248378     -0.04453088     -0.09334345       8       0       0       0      12     -0.00723411     -0.18423894     -0.12040533   -437.66997065      0.00457107      0.00223726      0.00039422      0.00164318
H              -1.95410578      0.14441152      0.03554133     -0.37059482      0.11145640      0.28244096      1.21037740      0.25414935     -0.08043303       1       0       0       0      13      0.93266872      0.23913868     -0.05090335    -16.06600384      0.00327124     -0.00178714     -0.00006512     -0.00001432
H               0.75492094     -0.90317072      0.02404379      0.42679671     -0.45185919      0.71915281     -1.25952584     -0.20191175     -0.07710776       1       0       0       0      12     -0.01773655     -0.13963810     -0.01221210    -15.30231261      0.00656264      0.00223247      0.00284695     -0.00221325
H              -0.54222263      0.87598217      0.88589122      0.22061079     -0.12014507     -0.04133542      0.07569801     -0.00256622      0.07133197       1       0       0       0      15      0.06447128      0.01219744      0.06957802    -15.82178048      0.00344896      0.00349511     -0.00113279     -0.00128570
H              -0.62201126      0.90265109     -0.90730323     -0.31490715      0.11583132     -0.04430264      0.19507674     -0.25054890     -0.06905611       1       0       0       0      15      0.16727570     -0.16185653     -0.08870166    -15.93851378      0.00322648      0.00290599     -0.00125857      0.00138229
H               3.42277390     -0.33844891     -0.00292478     -0.74663970      0.00848441     -0.03381383     -0.21515305      0.19575838     -0.00564535       1       0       0       0       7     -0.22090530      0.18687694     -0.00449496    -14.05825087      0.00458045     -0.01493592      0.00089001      0.00069673
7
EPS_SCF=0.00000100 energy=-670.05879038520652 units=gap_units Integrated_spin_density=0.00001924 opt_dir=/home/tks32/dft_pbe/apr_8_opt_fragments_subset/singlepoint_5_CH3OH time=2.00000000 free_energy=-669.92642817 cutoff=8.00000000 nneightol=1.20000000 pbc="T T T" Lattice="13.00000000       0.00000000       0.00000000       0.00000000       9.00000000       0.00000000       0.00000000       0.00000000       9.00000000" Properties=species:S:1:pos:R:3:momenta:R:3:forces:R:3:Z:I:1:map_shift:I:3:n_neighb:I:1:force:R:3:local_energy:R:1:gap_var:R:1:gap_variance_gradient:R:3
C              -0.82028554      0.30069693     -0.01971071      0.40784524     -0.66489645     -0.35241116     -1.64099982      0.27523659      0.46399183       6       0       0       0      12     -1.32425280      0.20758822      0.41998801   -155.19230987      0.00349029      0.00817416     -0.00210124     -0.00038950
O              -0.20839520     -0.97062204     -0.05198541      0.36970388      1.11225934     -0.44399823      2.18965154     -0.40889963     -0.04987043       8       0       0       0      12      0.44477501     -0.56487706     -0.20374191   -437.63372086      0.00449032      0.00062990     -0.00086088      0.00358890
H              -1.96481546      0.15235780      0.04157679     -0.23792528      0.06958833      0.22582726      1.94182664      0.24376188     -0.15988214       1       0       0       0      13      1.56120887      0.24201406     -0.10514736    -16.05391299      0.00330911     -0.00370095      0.00033446     -0.00002431
H               0.78027281     -0.93792406      0.07038191      0.25243030     -0.43434371      0.68875403     -2.43423291     -0.00096747     -0.30709959       1       0       0       0      12     -0.58823772      0.00773348     -0.08304023    -15.33817239      0.00650566      0.00711190      0.00415518     -0.00489061
H              -0.51392919      0.86026724      0.87956172      0.22646736     -0.14271661     -0.03543513      0.05866101      0.08892290      0.02005654       1       0       0       0      15      0.05264956      0.11771514      0.05746142    -15.76990920      0.00371208      0.00267873     -0.00046819     -0.00071896
H              -0.63194858      0.91969440     -0.91349639     -0.28655100      0.04142862     -0.05436858      0.31956868     -0.45221119      0.04255273       1       0       0       0      15      0.28112532     -0.25514601     -0.07410270    -15.98275122      0.00332424      0.00448846     -0.00154429      0.00145804
H               3.35910115     -0.32447026     -0.00632789     -0.73197050      0.01868047     -0.02836819     -0.43447513      0.25415692     -0.00974894       1       0       0       0       7     -0.42726825      0.24497215     -0.01141723    -14.08801385      0.00520112     -0.01938220      0.00048497      0.00097643
7
EPS_SCF=0.00000100 energy=-670.05562403872307 units=gap_units Integrated_spin_density=0.00001924 opt_dir=/home/tks32/dft_pbe/apr_8_opt_fragments_subset/singlepoint_5_CH3OH time=3.00000000 free_energy=-669.86342740 cutoff=8.00000000 nneightol=1.20000000 pbc="T T T" Lattice="13.00000000       0.00000000       0.00000000       0.00000000       9.00000000       0.00000000       0.00000000       0.00000000       9.00000000" Properties=species:S:1:pos:R:3:momenta:R:3:forces:R:3:Z:I:1:map_shift:I:3:n_neighb:I:1:force:R:3:local_energy:R:1:gap_var:R:1:gap_variance_gradient:R:3
C              -0.80694440      0.30022178     -0.03003096      0.24206383     -0.66818567     -0.23142061     -1.73376804      0.54086872      0.71512896       6       0       0       0      11     -1.39483278      0.39883991      0.61704879   -155.15921148      0.00370679      0.00870760     -0.00235163     -0.00057190
O              -0.19189071     -0.95854714     -0.07635606      0.63544674      1.10736623     -0.40817199      2.46118348     -0.90004006     -0.01518832       8       0       0       0      12      0.72095003     -0.95625782     -0.26036490   -437.59264351      0.00441987      0.00183105     -0.00074581      0.00495607
H              -1.96222264      0.15874283      0.04704498     -0.01826064      0.07331815      0.18538303      2.15571171      0.17102914     -0.20894337       1       0       0       0      13      1.75287021      0.18639733     -0.14368044    -16.04543123      0.00333935     -0.00441686      0.00065946     -0.00006164
H               0.79518310     -0.97025071      0.11369683     -0.06159485     -0.41842329      0.60761589     -2.68779689      0.23758222     -0.53202732       1       0       0       0      11     -0.87304260      0.17089028     -0.19025189    -15.35022230      0.00640205      0.00867953      0.00422075     -0.00658845
H              -0.48860952      0.84615134      0.87441572      0.23756117     -0.11314631     -0.05205079     -0.02843754      0.23700937     -0.02803200       1       0       0       0      13     -0.01403409      0.25927560      0.05537235    -15.74197636      0.00388499      0.00079585      0.00030707     -0.00023118
H              -0.64010908      0.93336962     -0.91900055     -0.23199520     -0.00887299     -0.06046480      0.45033275     -0.54749018      0.08728579       1       0       0       0      15      0.39774810     -0.31684327     -0.05076835    -16.02537171      0.00345201      0.00538860     -0.00174621      0.00162801
H               3.29459325     -0.30968772     -0.00976995     -0.80322104      0.02794387     -0.04089073     -0.61722546      0.26104079     -0.01822374       1       0       0       0       7     -0.58965887      0.25769796     -0.02735557    -14.14076746      0.00585812     -0.02098576     -0.00034363      0.00086909
7
EPS_SCF=0.00000100 energy=-670.08448417712816 units=gap_units Integrated_spin_density=0.00001924 opt_dir=/home/tks32/dft_pbe/apr_8_opt_fragments_subset/singlepoint_5_CH3OH time=4.00000000 free_energy=-669.92141924 cutoff=8.00000000 nneightol=1.20000000 pbc="T T T" Lattice="13.00000000       0.00000000       0.00000000       0.00000000       9.00000000       0.00000000       0.00000000       0.00000000       9.00000000" Properties=species:S:1:pos:R:3:momenta:R:3:forces:R:3:Z:I:1:map_shift:I:3:n_neighb:I:1:force:R:3:local_energy:R:1:gap_var:R:1:gap_variance_gradient:R:3
C              -0.79560283      0.30026320     -0.03837136      0.09695241     -0.46829551     -0.05211312     -1.49988412      0.93600013      0.87179218       6       0       0       0      11     -1.21431037      0.58985661      0.78030068   -155.12766527      0.00386694      0.00777253     -0.00243545     -0.00071319
O              -0.17430868     -0.94685702     -0.10041985      0.79128003      0.88555330     -0.50905168      2.06219386     -1.44101877     -0.07527736       8       0       0       0      12      0.66135146     -1.33352706     -0.34190965   -437.55141152      0.00440040      0.00504370      0.00049089      0.00584394
H              -1.94449038      0.16295436      0.05189198      0.21668213      0.08299046      0.13480893      1.98089256      0.04138260     -0.20245465       1       0       0       0      13      1.57915321      0.09067029     -0.15994687    -16.04769322      0.00333418     -0.00386608      0.00093283     -0.00013269
H               0.79769981     -0.99942147      0.15309742     -0.34263919     -0.36304526      0.51056024     -2.27610134      0.45223242     -0.62984087       1       0       0       0      11     -0.82215682      0.32108186     -0.25571406    -15.34831407      0.00621788      0.00807095      0.00342681     -0.00734226
H              -0.46725082      0.83436682      0.87078813      0.21550134     -0.07597154     -0.03326313     -0.24057371      0.39705175     -0.07049895       1       0       0       0      13     -0.15007993      0.42430101      0.06671568    -15.73382872      0.00394386      0.00000057      0.00048394     -0.00038194
H              -0.64544527      0.94275995     -0.92361493     -0.14069241     -0.07464127     -0.04621662      0.56097160     -0.60564839      0.15536527       1       0       0       0      15      0.49214067     -0.32017143     -0.03420373    -16.06849069      0.00359089      0.00565022     -0.00198012      0.00196570
H               3.22939818     -0.29406584     -0.01337140     -0.83708431      0.01340981     -0.00472463     -0.58749885      0.22000027     -0.04908562       1       0       0       0       7     -0.54609823      0.22778872     -0.05524205    -14.20708068      0.00661209     -0.02267190     -0.00091891      0.00076044
7
EPS_SCF=0.00000100 energy=-670.11652715104174 units=gap_units Integrated_spin_density=0.00001924 opt_dir=/home/tks32/dft_pbe/apr_8_opt_fragments_subset/singlepoint_5_CH3OH time=5.00000000 free_energy=-670.02465497 cutoff=8.00000000 nneightol=1.20000000 pbc="T T T" Lattice="13.00000000       0.00000000       0.00000000       0.00000000       9.00000000       0.00000000       0.00000000       0.00000000       9.00000000" Properties=species:S:1:pos:R:3:momenta:R:3:forces:R:3:Z:I:1:map_shift:I:3:n_neighb:I:1:force:R:3:local_energy:R:1:gap_var:R:1:gap_variance_gradient:R:3
C              -0.78522028      0.30108908     -0.04441574     -0.01055651     -0.24397781      0.15214617     -1.04321306      1.12087678      0.95255800       6       0       0       0      11     -0.84920803      0.75183548      0.89253490   -155.09543974      0.00393438      0.00582355     -0.00236988     -0.00077149
O              -0.15637161     -0.93571160     -0.12428754      0.88302482      0.70608064     -0.59884458      1.03278913     -1.91114048     -0.28736088       8       0       0       0      12      0.25564126     -1.67407807     -0.48809208   -437.50917277      0.00444505      0.00846606      0.00216630      0.00657583
H              -1.91515549      0.16497894      0.05629373      0.36769236      0.03634687      0.09026527      1.41385443     -0.09799378     -0.14617224       1       0       0       0      12      1.11228595     -0.02132691     -0.15434294    -16.05573742      0.00330836     -0.00238987      0.00111668     -0.00024539
H               0.78825205     -1.02663594      0.18825570     -0.47288385     -0.30471476      0.48093729     -1.38005779      0.58717715     -0.51881554       1       0       0       0      11     -0.51892246      0.42918996     -0.22397322    -15.33930662      0.00599873      0.00639240      0.00260360     -0.00767664
H              -0.44962886      0.82542107      0.86865675      0.14724989     -0.04209193     -0.05149219     -0.42520042      0.62474879      0.00325695       1       0       0       0      12     -0.29535329      0.58139856      0.08937027    -15.74025114      0.00399408     -0.00017102      0.00022009     -0.00103344
H              -0.64612180      0.94762534     -0.92718262     -0.07521088     -0.18029304     -0.03109141      0.63179461     -0.49028555      0.08442848       1       0       0       0      15      0.52207137     -0.25125031     -0.03813094    -16.11107480      0.00371648      0.00542201     -0.00232912      0.00247796
H               3.16424600     -0.27676689     -0.01732027     -0.83931582      0.02865003     -0.04192054     -0.22996690      0.16661709     -0.08789477       1       0       0       0       7     -0.22651480      0.18423128     -0.07736599    -14.26554466      0.00760995     -0.02354313     -0.00140768      0.00067317
7
EPS_SCF=0.00000100 energy=-670.12320640710186 units=gap_units Integrated_spin_density=0.00001924 opt_dir=/home/tks32/dft_pbe/apr_8_opt_fragments_subset/singlepoint_5_CH3OH time=6.00000000 free_energy=-670.07476078 cutoff=8.00000000 nneightol=1.20000000 pbc="T T T" Lattice="13.00000000       0.00000000       0.00000000       0.00000000       9.00000000       0.00000000       0.00000000       0.00000000       9.00000000" Properties=species:S:1:pos:R:3:momenta:R:3:forces:R:3:Z:I:1:map_shift:I:3:n_neighb:I:1:force:R:3:local_energy:R:1:gap_var:R:1:gap_variance_gradient:R:3
C              -0.77516893      0.30277609     -0.04817283     -0.09931723     -0.14189494      0.24212349     -0.02221506      1.19881486      1.02986603       6       0       0       0      11     -0.21941355      0.85376035      0.93906409   -155.06069829      0.00397334      0.00486803     -0.00241238     -0.00074859
O              -0.13815225     -0.92524221     -0.14838697      1.01896820      0.55630284     -0.62722857     -0.20543439     -2.16837062     -0.67274042       8       0       0       0      12     -0.17271085     -1.89441521     -0.69185165   -437.46844128      0.00451833      0.00952675      0.00348644      0.00731134
H              -1.87896621      0.16418102      0.06049517      0.43815765      0.02858902      0.12535246      0.33411776     -0.24323899     -0.05505798       1       0       0       0      12      0.40248967     -0.13069253     -0.12788212    -16.05949697      0.00328855     -0.00034996      0.00115788     -0.00040329
H               0.77005184     -1.05141074      0.21978104     -0.57315523     -0.22281661      0.42267672     -0.18171057      0.57680987     -0.14925659       1       0       0       0      11     -0.10171126      0.47251438     -0.08545559    -15.32578204      0.00580714      0.00417458      0.00221652     -0.00804349
H              -0.43611666      0.82000190      0.86810199      0.04616807      0.02127070     -0.05067151     -0.54886834      0.77418629      0.01127514       1       0       0       0      12     -0.40687847      0.69930008      0.11121220    -15.75851735      0.00402302     -0.00206919      0.00033284     -0.00144818
H              -0.64198563      0.94876389     -0.92995359     -0.02248663     -0.28845300     -0.05493804      0.55387060     -0.23027721     -0.05748630       1       0       0       0      15      0.44975514     -0.11850014     -0.05928475    -16.14989182      0.00379919      0.00450306     -0.00272242      0.00304110
H               3.10033784     -0.25906995     -0.02186482     -0.80833483      0.04700201     -0.05731455      0.07024001      0.09207580     -0.10659988       1       0       0       0       7      0.04846931      0.11803308     -0.08580217    -14.30037865      0.00864632     -0.02065327     -0.00205888      0.00029111
7
EPS_SCF=0.00000100 energy=-670.09773064297531 units=gap_units Integrated_spin_density=0.00001924 opt_dir=/home/tks32/dft_pbe/apr_8_opt_fragments_subset/singlepoint_5_CH3OH time=7.00000000 free_energy=-670.01747785 cutoff=8.00000000 nneightol=1.20000000 pbc="T T T" Lattice="13.00000000       0.00000000       0.00000000       0.00000000       9.00000000       0.00000000       0.00000000       0.00000000       9.00000000" Properties=species:S:1:pos:R:3:momenta:R:3:forces:R:3:Z:I:1:map_shift:I:3:n_neighb:I:1:force:R:3:local_energy:R:1:gap_var:R:1:gap_variance_gradient:R:3
C              -0.76445847      0.30519428     -0.04993035     -0.04233945      0.01869316      0.44237282      1.34955858      1.22896122      0.87078848       6       0       0       0      11      0.40581060      0.91317620      0.91876916   -155.02804735      0.00401078      0.00158101     -0.00207727     -0.00072296
O              -0.11956091     -0.91526184     -0.17330438      0.81485428      0.36009257     -0.80902528     -1.23538670     -2.19958970     -1.15411774       8       0       0       0      12     -0.44018998     -1.99210928     -0.90509624   -437.43536815      0.00457791      0.00810198      0.00419623      0.00799201
H              -1.84268087      0.15989504      0.06483411      0.49052446     -0.03664558      0.15399070     -1.21863835     -0.37214110      0.09641643       1       0       0       0      13     -0.37378588     -0.20893537     -0.08645357    -16.05143267      0.00328509      0.00169076      0.00104321     -0.00057915
H               0.74722082     -1.07364258      0.24885629     -0.47155674     -0.15261112      0.47160435      0.94766465      0.41880846      0.39344721       1       0       0       0      12      0.26776988      0.45009363      0.11561703    -15.31028545      0.00567284      0.00189697      0.00230260     -0.00852307
H              -0.42637474      0.81863003      0.86903562     -0.01409878      0.08236108     -0.09615703     -0.54021470      0.87538483      0.03901270       1       0       0       0      13     -0.45393094      0.75397091      0.11851497    -15.78617345      0.00401981     -0.00441581      0.00060542     -0.00164729
H              -0.63334613      0.94760929     -0.93231858      0.02950822     -0.29464013     -0.08961615      0.33491975      0.04699573     -0.15184298       1       0       0       0      15      0.28999304      0.05071347     -0.08568198    -16.17841727      0.00383027      0.00391552     -0.00335305      0.00370811
H               3.03920029     -0.24242423     -0.02717272     -0.80689199      0.02275002     -0.07316941      0.36209678      0.00158056     -0.09370410       1       0       0       0       8      0.30433327      0.03309043     -0.07566937    -14.30800630      0.00934719     -0.01277041     -0.00271714     -0.00022766
7
EPS_SCF=0.00000100 energy=-670.05120358789395 units=gap_units Integrated_spin_density=0.00001924 opt_dir=/home/tks32/dft_pbe/apr_8_opt_fragments_subset/singlepoint_5_CH3OH time=8.00000000 free_energy=-669.89044278 cutoff=8.00000000 nneightol=1.20000000 pbc="T T T" Lattice="13.00000000       0.00000000       0.00000000       0.00000000       9.00000000       0.00000000       0.00000000       0.00000000       9.00000000" Properties=species:S:1:pos:R:3:momenta:R:3:forces:R:3:Z:I:1:map_shift:I:3:n_neighb:I:1:force:R:3:local_energy:R:1:gap_var:R:1:gap_variance_gradient:R:3
C              -0.75220711      0.30819360     -0.05009759      0.21206286      0.10713370      0.48936341      2.50806108      1.19439908      0.56646539       6       0       0       0      11      0.72273006      0.92881836      0.84735710   -155.00718943      0.00402295     -0.00239072     -0.00157788     -0.00071034
O              -0.10019291     -0.90580367     -0.19952184      0.60921709      0.29093217     -0.92877475     -1.44929201     -2.24442891     -1.41883438       8       0       0       0      12     -0.50581765     -2.00230692     -1.05020566   -437.41244552      0.00459155      0.00514308      0.00425052      0.00840495
H              -1.81273531      0.15179483      0.06944066      0.31079649     -0.13939221      0.14347273     -2.73549180     -0.39542731      0.28151967       1       0       0       0      13     -0.95116370     -0.23212568     -0.05343504    -16.03441928      0.00328314      0.00314543      0.00084133     -0.00071875
H               0.72339285     -1.09389987      0.27682879     -0.40906827     -0.12137689      0.53110908      1.38271707      0.26066927      0.76442265       1       0       0       0      12      0.45844118      0.38740966      0.29701024    -15.29676518      0.00558823      0.00015608      0.00265164     -0.00891195
H              -0.41957726      0.82170617      0.87125304     -0.06519827      0.15674865     -0.08242729     -0.44567724      0.93664890      0.09336567       1       0       0       0      13     -0.42553522      0.74030622      0.10872414    -15.82008971      0.00399656     -0.00589468      0.00079149     -0.00172426
H              -0.62108978      0.94593269     -0.93459290      0.05415633     -0.29733045     -0.05864098      0.06131274      0.31686819     -0.22495594       1       0       0       0      15      0.10000775      0.21660297     -0.09799330    -16.19127391      0.00386950      0.00321328     -0.00383037      0.00412369
H               2.98240951     -0.22792375     -0.03331016     -0.71196623      0.00328503     -0.09410219      0.67837017     -0.06872922     -0.06198306       1       0       0       0       8      0.60133758     -0.03870461     -0.05145749    -14.28902056      0.00951106     -0.00337247     -0.00312673     -0.00046333
7
EPS_SCF=0.00000100 energy=-670.00950654152177 units=gap_units Integrated_spin_density=0.00001924 opt_dir=/home/tks32/dft_pbe/apr_8_opt_fragments_subset/singlepoint_5_CH3OH time=9.00000000 free_energy=-669.80819030 cutoff=8.00000000 nneightol=1.20000000 pbc="T T T" Lattice="13.00000000       0.00000000       0.00000000       0.00000000       9.00000000       0.00000000       0.00000000       0.00000000       9.00000000" Properties=species:S:1:pos:R:3:momenta:R:3:forces:R:3:Z:I:1:map_shift:I:3:n_neighb:I:1:force:R:3:local_energy:R:1:gap_var:R:1:gap_variance_gradient:R:3
C              -0.73791227      0.31143763     -0.04906482      0.25296756      0.13958671      0.50205644      2.80213158      1.07272115      0.39312570       6       0       0       0      11      0.61034899      0.88027233      0.74629157   -155.00914361      0.00400344     -0.00503952     -0.00116921     -0.00069056
O              -0.07967218     -0.89696280     -0.22717169      0.69648803      0.07979719     -0.99682625     -1.05775927     -2.27189670     -1.37276847       8       0       0       0      11     -0.31009208     -1.95090197     -1.03484979   -437.39949101      0.00454744      0.00198568      0.00379687      0.00831575
H              -1.79335702      0.13994625      0.07407072      0.05966739     -0.13288842      0.20443077     -3.39498956     -0.35205006      0.37457447       1       0       0       0      13     -1.09200914     -0.18019561     -0.05699758    -16.01759752      0.00326271      0.00361140      0.00063445     -0.00076409
H               0.70077887     -1.11290924      0.30476162     -0.29712038     -0.10076583      0.62230580      1.22817775      0.17955713      0.85955409       1       0       0       0      12      0.40674263      0.32444080      0.36523142    -15.28856410      0.00552056     -0.00058873      0.00300122     -0.00891622
H              -0.41457316      0.82933484      0.87454764     -0.08642346      0.25570079     -0.08442992     -0.29402128      0.90937968      0.12947721       1       0       0       0      13     -0.33491070      0.66292083      0.07982181    -15.85609290      0.00396631     -0.00609164      0.00083780     -0.00168901
H              -0.60654664      0.94528865     -0.93693313      0.02112068     -0.26838729     -0.10274659     -0.14880187      0.56234619     -0.35277543       1       0       0       0      14     -0.08130355      0.34467332     -0.07616781    -16.18643550      0.00389820      0.00161052     -0.00365824      0.00389445
H               2.93128239     -0.21613532     -0.04021035     -0.64669982      0.02695685     -0.14479025      0.86526264     -0.10005738     -0.03118757       1       0       0       0       8      0.80122385     -0.08120971     -0.02332962    -14.25218190      0.00915862      0.00451230     -0.00344289     -0.00015033
7
EPS_SCF=0.00000100 energy=-669.98465803990405 units=gap_units Integrated_spin_density=0.00001924 opt_dir=/home/tks32/dft_pbe/apr_8_opt_fragments_subset/singlepoint_5_CH3OH time=10.00000000 free_energy=-669.84761833 cutoff=8.00000000 nneightol=1.20000000 pbc="T T T" Lattice="13.00000000       0.00000000       0.00000000       0.00000000       9.00000000       0.00000000       0.00000000       0.00000000       9.00000000" Properties=species:S:1:pos:R:3:momenta:R:3:forces:R:3:Z:I:1:map_shift:I:3:n_neighb:I:1:force:R:3:local_energy:R:1:gap_var:R:1:gap_variance_gradient:R:3
C              -0.72204896      0.31445194     -0.04708810      0.50167626      0.24066968      0.47538861      1.77010155      0.89548828      0.41943903       6       0       0       0      11      0.12011278      0.77787602      0.61476617   -155.03010433      0.00396531     -0.00560259     -0.00096389     -0.00064222
O              -0.05788334     -0.88920306     -0.25587173      0.70939575     -0.11562789     -1.04656275     -0.11634876     -2.29149383     -0.80810805       8       0       0       0      12      0.09677412     -1.84518664     -0.79352256   -437.39490657      0.00446057     -0.00039368      0.00306443      0.00763862
H              -1.78412300      0.12510689      0.07798856     -0.27333333     -0.16629365      0.24585579     -2.62440417     -0.19181193      0.22801320       1       0       0       0      13     -0.80751046     -0.05943069     -0.09725815    -16.00287593      0.00322333      0.00314157      0.00047129     -0.00070375