7
Lattice="13.0 0.0 0.0 0.0 9.0 0.0 0.0 0.0 9.0" Properties=species:S:1:pos:R:3:momenta:R:3:forces:R:3:map_shift:I:3:n_neighb:I:1:force:R:3:local_energy:R:1:gap_var:R:1:gap_variance_gradient:R:3 EPS_SCF=1e-06 energy=-671.12726600372 units=gap_units Integrated_spin_density=1.924e-05 opt_dir=/home/tks32/dft_pbe/apr_8_opt_fragments_subset/singlepoint_5_CH3OH time=80.0 free_energy=-670.37409561 cutoff=8.0 nneightol=1.2 pbc="T T T"
C       -0.66988468       0.36070383      -0.03597482      -0.31755189       0.20554123      -0.72739919       0.00486215       0.01002038      -0.00189593        0        0        0       14       0.38672020      -0.79668979       1.02130473    -154.85775678       0.00448875      -0.00544893       0.00086698       0.00233657
O        0.65241846      -0.28637918       0.00254417       0.81008310      -0.91349911      -1.00947518       0.00005281      -0.02238930       0.01256683        0        0        0       12      -1.55133336       1.36140503      -1.12138439    -436.49689155       0.00909530       0.01672761       0.00191792      -0.01300883
H       -1.47520275      -0.32209749      -0.36633028      -0.18886903       0.28104581       0.54177865      -0.00694307       0.00102655       0.01295233        0        0        0       11       0.13731432       0.17218991       0.20547067     -16.13131263       0.00408841      -0.00631119       0.00292362       0.00265222
H        0.72311320      -1.01379350       0.65320900       0.07114053      -0.47466848       0.82710319      -0.00193056      -0.00741792      -0.02223093        0        0        0       14       0.28594222      -0.58676237       0.77402327     -15.66993945       0.00522586       0.00400979       0.00048895      -0.00783020
H       -0.94779997       0.79979088       0.93765673       0.25883444       0.18186623      -0.11931727       0.00348412       0.00549184      -0.00284875        0        0        0       15       0.13040586      -0.25533422      -0.52127414     -15.83183779       0.00443904       0.00343938      -0.00249757      -0.00363565
H       -0.61746975       1.18954256      -0.76940510      -0.44120399       0.03986781       0.11509125       0.01337200      -0.01225640      -0.00648260        0        0        0       14       0.20652967       0.26096981      -0.45801438     -16.09757688       0.00432027      -0.00798827       0.00220023       0.00206219
H        2.33482548      -0.72776711      -0.42169972      -0.19243317       0.67984652       0.37221854      -0.01289745       0.02552485       0.00793905        0        0        0       12       0.40442109      -0.15577837       0.09987423     -15.80083070       0.01448637      -0.00442839      -0.00590012       0.01742371
7
Lattice="13.0 0.0 0.0 0.0 9.0 0.0 0.0 0.0 9.0" Properties=species:S:1:pos:R:3:momenta:R:3:forces:R:3 EPS_SCF=1e-06 energy=-671.1253811968594 units=gap_units Integrated_spin_density=1.924e-05 opt_dir=/home/tks32/dft_pbe/apr_8_opt_fragments_subset/singlepoint_5_CH3OH time=80.0 free_energy=-670.37409561 cutoff=8.0 nneightol=1.2 pbc="T T T"
C       -0.66983585       0.35738435      -0.03751729      -0.31755189       0.20554123      -0.72739919       0.00107340       0.00385766       0.00016298
O        0.64922650      -0.29891480       0.00797684       0.81008310      -0.91349911      -1.00947518       0.00138712      -0.00243645       0.00696884
H       -1.47584083      -0.31924695      -0.38199985      -0.18886903       0.28104581       0.54177865      -0.00399887      -0.00170322       0.02016498
H        0.73244607      -0.99472454       0.69014037       0.07114053      -0.47466848       0.82710319      -0.01427571      -0.02883854      -0.03434382
H       -0.95859710       0.78751596       0.93694744       0.25883444       0.18186623      -0.11931727       0.00991793       0.02000778      -0.00055235
H       -0.59459263       1.19015644      -0.76528600      -0.44120399       0.03986781       0.11509125      -0.00461214      -0.01056514      -0.01102437
H        2.31719384      -0.72217049      -0.45026153      -0.19243317       0.67984652       0.37221854       0.01050827       0.01967791       0.01862374
7
Lattice="13.0 0.0 0.0 0.0 9.0 0.0 0.0 0.0 9.0" Properties=species:S:1:pos:R:3:momenta:R:3:forces:R:3 EPS_SCF=1e-06 energy=-671.1213922495905 units=gap_units Integrated_spin_density=1.924e-05 opt_dir=/home/tks32/dft_pbe/apr_8_opt_fragments_subset/singlepoint_5_CH3OH time=80.0 free_energy=-670.37409561 cutoff=8.0 nneightol=1.2 pbc="T T T"
C       -0.67030920       0.35504616      -0.03946060      -0.31755189       0.20554123      -0.72739919       0.00014337       0.00208879       0.00543458
O        0.64727572      -0.30468271       0.00678805       0.81008310      -0.91349911      -1.00947518       0.00328647       0.01605417      -0.00438610
H       -1.47438661      -0.31817654      -0.39634439      -0.18886903       0.28104581       0.54177865      -0.00293618      -0.00370059       0.02845032
H        0.74326531      -0.96967480       0.71687092       0.07114053      -0.47466848       0.82710319      -0.01935751      -0.05077712      -0.04170215
H       -0.96660455       0.77384149       0.93729833       0.25883444       0.18186623      -0.11931727       0.01622901       0.02724340      -0.00231467
H       -0.58744801       1.19504491      -0.75811666      -0.44120399       0.03986781       0.11509125      -0.01464216      -0.01020944      -0.01699950
H        2.30820733      -0.73139851      -0.46703566      -0.19243317       0.67984652       0.37221854       0.01727701       0.01930079       0.03151751
7
Lattice="13.0 0.0 0.0 0.0 9.0 0.0 0.0 0.0 9.0" Properties=species:S:1:pos:R:3:momenta:R:3:forces:R:3 EPS_SCF=1e-06 energy=-671.1166998021868 units=gap_units Integrated_spin_density=1.924e-05 opt_dir=/home/tks32/dft_pbe/apr_8_opt_fragments_subset/singlepoint_5_CH3OH time=80.0 free_energy=-670.37409561 cutoff=8.0 nneightol=1.2 pbc="T T T"
C       -0.67110825       0.35271857      -0.04171068      -0.31755189       0.20554123      -0.72739919      -0.00109649       0.00257653       0.00872775
O        0.64369017      -0.31256249       0.00052036       0.81008310      -0.91349911      -1.00947518       0.00624150       0.02928734      -0.01133590
H       -1.47406765      -0.31697467      -0.40778633      -0.18886903       0.28104581       0.54177865      -0.00194783      -0.00624620       0.03366820
H        0.75462265      -0.94303074       0.73895920       0.07114053      -0.47466848       0.82710319      -0.02213641      -0.06961537      -0.04675950
H       -0.97227450       0.76087306       0.93772034       0.25883444       0.18186623      -0.11931727       0.02100876       0.03423228      -0.00322061
H       -0.58449886       1.19971787      -0.75158229      -0.44120399       0.03986781       0.11509125      -0.02220671      -0.01049423      -0.02168922
H        2.30363643      -0.74074162      -0.47612062      -0.19243317       0.67984652       0.37221854       0.02013718       0.02025965       0.04060927
7
Lattice="13.0 0.0 0.0 0.0 9.0 0.0 0.0 0.0 9.0" Properties=species:S:1:pos:R:3:momenta:R:3:forces:R:3 EPS_SCF=1e-06 energy=-671.1031356385871 units=gap_units Integrated_spin_density=1.924e-05 opt_dir=/home/tks32/dft_pbe/apr_8_opt_fragments_subset/singlepoint_5_CH3OH time=80.0 free_energy=-670.37409561 cutoff=8.0 nneightol=1.2 pbc="T T T"
C       -0.67358836       0.34563884      -0.04804282      -0.31755189       0.20554123      -0.72739919      -0.00138249       0.00564363       0.01125676
O        0.63258454      -0.33755800      -0.01366310       0.81008310      -0.91349911      -1.00947518       0.00914197       0.03868372      -0.00948972
H       -1.47521512      -0.31686813      -0.42899759      -0.18886903       0.28104581       0.54177865      -0.00083240      -0.01151899       0.04400157
H        0.78243141      -0.87683470       0.78772857       0.07114053      -0.47466848       0.82710319      -0.02456040      -0.08753475      -0.07643770
H       -0.98491976       0.73493224       0.93533495       0.25883444       0.18186623      -0.11931727       0.02851453       0.04653323      -0.00279168
H       -0.57770533       1.20387380      -0.74322825      -0.44120399       0.03986781       0.11509125      -0.03611122      -0.01192823      -0.02812498
H        2.29641261      -0.75318407      -0.48913178      -0.19243317       0.67984652       0.37221854       0.02523001       0.02012140       0.06158574
7
Lattice="13.0 0.0 0.0 0.0 9.0 0.0 0.0 0.0 9.0" Properties=species:S:1:pos:R:3:momenta:R:3:forces:R:3 EPS_SCF=1e-06 energy=-671.1184517119555 units=gap_units Integrated_spin_density=1.924e-05 opt_dir=/home/tks32/dft_pbe/apr_8_opt_fragments_subset/singlepoint_5_CH3OH time=80.0 free_energy=-670.37409561 cutoff=8.0 nneightol=1.2 pbc="T T T"
C       -0.67176335       0.35485103      -0.04111739      -0.31755189       0.20554123      -0.72739919       0.00274979       0.00415920       0.00319003
O        0.64286168      -0.30941695      -0.01138236       0.81008310      -0.91349911      -1.00947518       0.00891494       0.01787390       0.00676274
H       -1.47535750      -0.31483227      -0.40355210      -0.18886903       0.28104581       0.54177865      -0.00097413      -0.00698077       0.02856937
H        0.75500359      -0.94544018       0.72257169       0.07114053      -0.47466848       0.82710319      -0.02490273      -0.06101822      -0.04287866
H       -0.96579883       0.76067017       0.94123665       0.25883444       0.18186623      -0.11931727       0.01421304       0.03341753      -0.00278057
H       -0.59821225       1.20519616      -0.74779473      -0.44120399       0.03986781       0.11509125      -0.01406334      -0.01216665      -0.01811315
H        2.31326664      -0.75102798      -0.45996176      -0.19243317       0.67984652       0.37221854       0.01406244       0.02471501       0.02525024
7
Lattice="13.0 0.0 0.0 0.0 9.0 0.0 0.0 0.0 9.0" Properties=species:S:1:pos:R:3:momenta:R:3:forces:R:3 EPS_SCF=1e-06 energy=-671.0966795665418 units=gap_units Integrated_spin_density=1.924e-05 opt_dir=/home/tks32/dft_pbe/apr_8_opt_fragments_subset/singlepoint_5_CH3OH time=80.0 free_energy=-670.37409561 cutoff=8.0 nneightol=1.2 pbc="T T T"
C       -0.68097239       0.34124117      -0.05557745      -0.31755189       0.20554123      -0.72739919       0.00789603      -0.00032014       0.02751706
O        0.61414071      -0.36237559      -0.06409750       0.81008310      -0.91349911      -1.00947518       0.01998953       0.07034320      -0.00978469
H       -1.48385661      -0.31967599      -0.42678698      -0.18886903       0.28104581       0.54177865       0.00710261      -0.01821708       0.02627199
H        0.81921612      -0.81139833       0.77949571       0.07114053      -0.47466848       0.82710319      -0.04070347      -0.11053386      -0.00492506
H       -0.97897169       0.71805330       0.93718989       0.25883444       0.18186623      -0.11931727       0.01259603       0.04437826      -0.01858844
H       -0.61329239       1.20944009      -0.73914507      -0.44120399       0.03986781       0.11509125      -0.02136657      -0.00956303      -0.02794022
H        2.32373623      -0.77528466      -0.43107863      -0.19243317       0.67984652       0.37221854       0.01448586       0.02391266       0.00744936
7
Lattice="13.0 0.0 0.0 0.0 9.0 0.0 0.0 0.0 9.0" Properties=species:S:1:pos:R:3:momenta:R:3:forces:R:3 EPS_SCF=1e-06 energy=-671.0853910981755 units=gap_units Integrated_spin_density=1.924e-05 opt_dir=/home/tks32/dft_pbe/apr_8_opt_fragments_subset/singlepoint_5_CH3OH time=80.0 free_energy=-670.37409561 cutoff=8.0 nneightol=1.2 pbc="T T T"
C       -0.68342808       0.33567688      -0.05977209      -0.31755189       0.20554123      -0.72739919       0.00346784      -0.00301352       0.05804885
O        0.60173276      -0.38866897      -0.07168828       0.81008310      -0.91349911      -1.00947518       0.01312675       0.08319051      -0.04155390
H       -1.48742701      -0.31732161      -0.44030726      -0.18886903       0.28104581       0.54177865       0.01058518      -0.02031069       0.02308060
H        0.84470164      -0.75708450       0.80015518       0.07114053      -0.47466848       0.82710319      -0.02873146      -0.11845652       0.01983606
H       -0.98844305       0.69815169       0.93658903       0.25883444       0.18186623      -0.11931727       0.01143357       0.04086952      -0.03195949
H       -0.60548224       1.21142201      -0.73215055      -0.44120399       0.03986781       0.11509125      -0.01737376      -0.00420071      -0.03614977
H        2.31834595      -0.78217551      -0.43282604      -0.19243317       0.67984652       0.37221854       0.00749189       0.02192142       0.00869764
7
Lattice="13.0 0.0 0.0 0.0 9.0 0.0 0.0 0.0 9.0" Properties=species:S:1:pos:R:3:momenta:R:3:forces:R:3:map_shift:I:3:n_neighb:I:1:force:R:3:local_energy:R:1:gap_var:R:1:gap_variance_gradient:R:3 EPS_SCF=1e-06 energy=-671.1070434916172 units=gap_units Integrated_spin_density=1.924e-05 opt_dir=/home/tks32/dft_pbe/apr_8_opt_fragments_subset/singlepoint_5_CH3OH time=80.0 free_energy=-670.37409561 cutoff=8.0 nneightol=1.2 pbc="T T T"
C       -0.67826681       0.34677053      -0.05194478      -0.31755189       0.20554123      -0.72739919      -0.00124942      -0.01730681       0.07760530        0        0        0       14       0.38672020      -0.79668979       1.02130473    -154.85775678       0.00448875      -0.00544893       0.00086698       0.00233657
O        0.62565797      -0.33887584      -0.05252822       0.81008310      -0.91349911      -1.00947518       0.00412400       0.12010628      -0.09094861        0        0        0       12      -1.55133336       1.36140503      -1.12138439    -436.49689155       0.00909530       0.01672761       0.00191792      -0.01300883
H       -1.48090078      -0.32117089      -0.41290042      -0.18886903       0.28104581       0.54177865       0.00932786      -0.01330567       0.02199210        0        0        0       11       0.13731432       0.17218991       0.20547067     -16.13131263       0.00408841      -0.00631119       0.00292362       0.00265222
H        0.79419327      -0.86285426       0.75252209       0.07114053      -0.47466848       0.82710319      -0.02745065      -0.14851817       0.06662010        0        0        0       14       0.28594222      -0.58676237       0.77402327     -15.66993945       0.00522586       0.00400979       0.00048895      -0.00783020
H       -0.96955952       0.73789895       0.93821038       0.25883444       0.18186623      -0.11931727       0.01734854       0.03221052      -0.04230502        0        0        0       15       0.13040586      -0.25533422      -0.52127414     -15.83183779       0.00443904       0.00343938      -0.00249757      -0.00363565
H       -0.62032414       1.20689232      -0.74537183      -0.44120399       0.03986781       0.11509125      -0.00947121       0.00189281      -0.04084944        0        0        0       14       0.20652967       0.26096981      -0.45801438     -16.09757688       0.00432027      -0.00798827       0.00220023       0.00206219
H        2.32919999      -0.76866083      -0.42798724      -0.19243317       0.67984652       0.37221854       0.00737088       0.02492103       0.00788557        0        0        0       12       0.40442109      -0.15577837       0.09987423     -15.80083070       0.01448637      -0.00442839      -0.00590012       0.01742371
7
Lattice="13.0 0.0 0.0 0.0 9.0 0.0 0.0 0.0 9.0" Properties=species:S:1:pos:R:3:momenta:R:3:forces:R:3:map_shift:I:3:n_neighb:I:1:force:R:3:local_energy:R:1:gap_var:R:1:gap_variance_gradient:R:3 EPS_SCF=1e-06 energy=-671.1181687872022 units=gap_units Integrated_spin_density=1.924e-05 opt_dir=/home/tks32/dft_pbe/apr_8_opt_fragments_subset/singlepoint_5_CH3OH time=83.0 free_energy=-670.45035893 cutoff=8.0 nneightol=1.2 pbc="T T T"
C       -0.65043905       0.39067277       0.00642747      -0.54311101       0.50908883      -0.05588461      -0.01728177       0.00235060      -0.00612754        0        0        0       14      -0.34452366      -1.09109650       0.86214699    -154.75208278       0.00458602      -0.00585249       0.00321184       0.00217326
O        0.66646395      -0.27936138       0.09188234       1.42816830      -0.41606403      -0.61207837      -0.01519898      -0.03782540      -0.07438967        0        0        0       14      -0.73211945       1.19292250      -0.64690252    -436.47993460       0.00947722      -0.01358613       0.00608386      -0.00432726
H       -1.48212478      -0.25689020      -0.33792795       0.14294341       0.27707057      -0.15415666      -0.00439466       0.01241534      -0.02293531        0        0        0       11       0.35457677       0.45351139       0.20942644     -16.06795268       0.00410754      -0.00602763       0.00230677       0.00215408
H        0.64663895      -1.18022719       0.47637101      -0.54232151      -0.94835109       0.38912829      -0.00576915       0.04092702       0.05396492        0        0        0       15       0.07685576      -0.57567934       0.47795893     -15.74327076       0.00567357       0.01105588       0.00111397      -0.00964796
H       -0.92773690       0.81640786       0.98709955       0.17600293       0.11170834      -0.03221774       0.03238384      -0.01263984      -0.00448913        0        0        0       15      -0.01602336      -0.06400309      -0.38901915     -15.91834370       0.00451545      -0.00241546       0.00031285      -0.00017858
H       -0.52805509       1.22030406      -0.72140732      -0.59333054      -0.01403465       0.04691796      -0.02935272       0.00482887       0.04273690        0        0        0       15       0.18625969       0.36769575      -0.43255921     -16.11247280       0.00473034      -0.00814888       0.00325229       0.00142266
H        2.27525294      -0.71090593      -0.50244509      -0.06835159       0.48058202       0.41829113       0.03961343      -0.01005659       0.01123983        0        0        0       12       0.47497423      -0.28335071      -0.08105147     -15.73788870       0.01237647       0.02497471      -0.01628158       0.00840380
7
Lattice="13.0 0.0 0.0 0.0 9.0 0.0 0.0 0.0 9.0" Properties=species:S:1:pos:R:3:momenta:R:3:forces:R:3:map_shift:I:3:n_neighb:I:1:force:R:3:local_energy:R:1:gap_var:R:1:gap_variance_gradient:R:3 EPS_SCF=1e-06 energy=-671.4768793539482 units=gap_units Integrated_spin_density=1.924e-05 opt_dir=/home/tks32/dft_pbe/apr_8_opt_fragments_subset/singlepoint_5_CH3OH time=86.0 free_energy=-670.83335462 cutoff=8.0 nneightol=1.2 pbc="T T T"
C       -0.76987816       0.47143921      -0.01644977      -0.96104763       1.38937869       0.18357639      -0.67332466       0.33790637      -0.04583935        0        0        0       13      -0.90837138      -1.06686627       0.51812373    -154.65549574       0.00470085      -0.00041431       0.00290974       0.00056328
O        1.01165793      -0.40772052       0.00168657       1.39323556      -0.90182960      -1.25872134       1.79378600      -0.73743913      -0.53735221        0        0        0       14       1.14738346       0.64226950      -1.01935932    -436.65831000       0.00841549      -0.02727969       0.00634468       0.00161653
H       -1.51644578      -0.25521618      -0.35596797       0.35854273       0.21658302      -0.43873678      -0.08352050       0.03271197      -0.07285091        0        0        0       11       0.43632183       0.58244741       0.20314176     -15.99544262       0.00421168      -0.00217164       0.00113400       0.00143363
H        0.78581389      -1.22402864       0.48983934      -0.38058144      -0.97587983       0.50656774       0.72217372      -0.32246942       0.01945804        0        0        0       14      -0.10187142      -0.58186781       0.43088581     -15.78719900       0.00641707       0.01330090       0.00237869      -0.00816911
H       -0.94449859       0.82714480       1.00340751      -0.16903296      -0.32354872       0.02695121      -0.03301509       0.08304898       0.09490742        0        0        0       15      -0.02311027       0.00841182      -0.25992930     -15.98573738       0.00449018      -0.00158262       0.00024943       0.00024546
H       -0.53857911       1.25384506      -0.74631004      -0.23159787       0.03822920       0.39962439      -0.08496204       0.30328049      -0.17897555        0        0        0       15       0.10132226       0.42729903      -0.30773678     -16.13060179       0.00507519      -0.00774824       0.00429130       0.00079988
H        1.97192984      -0.66546374      -0.37620561      -0.00951839       0.55706725       0.58073838      -1.64113742       0.30296074       0.72065257        0        0        0       12      -0.65167449      -0.01169368       0.43487408     -15.61979289       0.00909723       0.02589561      -0.01730784       0.00351033
7
Lattice="13.0 0.0 0.0 0.0 9.0 0.0 0.0 0.0 9.0" Properties=species:S:1:pos:R:3:momenta:R:3:forces:R:3:map_shift:I:3:n_neighb:I:1:force:R:3:local_energy:R:1:gap_var:R:1:gap_variance_gradient:R:3 EPS_SCF=1e-06 energy=-671.7119722291548 units=gap_units Integrated_spin_density=1.924e-05 opt_dir=/home/tks32/dft_pbe/apr_8_opt_fragments_subset/singlepoint_5_CH3OH time=89.0 free_energy=-670.5287924 cutoff=8.0 nneightol=1.2 pbc="T T T"
C       -0.91728473       0.52946392      -0.06643325      -0.82848911       1.88230473      -0.46945715      -0.08640864      -0.15900943       0.03051700        0        0        0       13      -1.17421724      -0.74471018       0.13032210    -154.58015670       0.00479754       0.00335909       0.00166012       0.00006562
O        1.10522206      -0.50169420      -0.02719381       1.48828624      -1.44892147      -1.11960669       0.05038975       0.02614460      -0.06757862        0        0        0       13       2.26122602       0.01131386      -1.26710578    -436.85509026       0.00724394      -0.02412047       0.00393391       0.00121889
H       -1.50067995      -0.28641627      -0.50301078      -0.06299751       0.08218233       0.46099558       0.07173469       0.07637071       0.01620360        0        0        0       12       0.33793979       0.59149056       0.18897473     -15.93175342       0.00435398      -0.00118343       0.00037772       0.00064739
H        1.03516479      -1.02849178       0.77527161      -0.40899187      -0.64994277       0.51167641       0.05250527      -0.06963827       0.10769230        0        0        0       14       0.07696813      -0.49178975       0.19892845     -15.83156218       0.00665451       0.01076672       0.00182818      -0.00373112
H       -1.10736389       0.77242243       0.98158698      -0.02048658      -0.13334168      -0.19736485      -0.00999678       0.00797244      -0.01639200        0        0        0       15      -0.05111899       0.06315686      -0.15831073     -16.02066527       0.00459347      -0.00005526       0.00014852       0.00015580
H       -0.55702731       1.31091580      -0.73699443       0.00938589       0.06370902       0.39548263       0.01831571       0.10464337      -0.06430439        0        0        0       15       0.00103078       0.39809801      -0.15746909     -16.14929177       0.00522031      -0.00635445       0.00429540       0.00031109
H        1.94196902      -0.79619991      -0.42322631      -0.17670706       0.20400984       0.41827408      -0.09654001       0.01351658      -0.00613789        0        0        0       12      -1.45182850       0.17244065       1.06466030     -15.64464634       0.00700185       0.01758781      -0.01224385       0.00133233
7
Lattice="13.0 0.0 0.0 0.0 9.0 0.0 0.0 0.0 9.0" Properties=species:S:1:pos:R:3:momenta:R:3:forces:R:3:map_shift:I:3:n_neighb:I:1:force:R:3:local_energy:R:1:gap_var:R:1:gap_variance_gradient:R:3 EPS_SCF=1e-06 energy=-671.7010078875711 units=gap_units Integrated_spin_density=1.924e-05 opt_dir=/home/tks32/dft_pbe/apr_8_opt_fragments_subset/singlepoint_5_CH3OH time=92.0 free_energy=-670.75047499 cutoff=8.0 nneightol=1.2 pbc="T T T"
C       -0.87295441       0.53577902      -0.05857515      -0.79499824       1.78321879       0.21801009      -0.07660099      -0.09503420      -0.01333679        0        0        0       13      -1.04387680      -0.39358578      -0.08786692    -154.51194247       0.00485947       0.00380606       0.00078153       0.00021251
O        1.06336586      -0.51997676      -0.02683111       1.70194357      -1.22844295      -0.44731579       0.15927024       0.04611607      -0.10055732        0        0        0       12       2.29773312      -0.51135132      -1.43847417    -436.98624147       0.00644657      -0.01719999       0.00202607      -0.00093064
H       -1.57320454      -0.23815762      -0.39161477       0.09124749       0.06157029       0.42054349       0.04033397       0.06040006       0.02733216        0        0        0       11       0.18537041       0.55974112       0.15345974     -15.88262811       0.00447073      -0.00084366      -0.00018029       0.00019469
H        0.89065761      -1.29947071       0.51449391      -0.54657535      -0.09380397       0.14309043       0.00163592      -0.12404765       0.06169446        0        0        0       14       0.16177722      -0.42488394       0.23795735     -15.87706038       0.00639286       0.00845730       0.00058524      -0.00145895
H       -0.95802573       0.83872995       0.98781339       0.39756816       0.22492281      -0.40063982      -0.00675423       0.03078649       0.01783901        0        0        0       14      -0.08443863       0.10879839      -0.11352890     -16.02995857       0.00484692       0.00063600       0.00071376       0.00031087
H       -0.56391846       1.29530692      -0.78392350      -0.30503036      -0.00535556      -0.03987102      -0.00027768       0.05113900      -0.03625507        0        0        0       15      -0.07795725       0.28549208      -0.01646407     -16.16018042       0.00518524      -0.00452108       0.00346089       0.00008697
H        2.01407967      -0.61221080      -0.24136277      -0.54415527      -0.74210940       0.10618261      -0.11760723       0.03064023       0.04328354        0        0        0       13      -1.43860807       0.37578945       1.26491697     -15.74364403       0.00598672       0.00966538      -0.00738721       0.00158455
7
Lattice="13.0 0.0 0.0 0.0 9.0 0.0 0.0 0.0 9.0" Properties=species:S:1:pos:R:3:momenta:R:3:forces:R:3:map_shift:I:3:n_neighb:I:1:force:R:3:local_energy:R:1:gap_var:R:1:gap_variance_gradient:R:3 EPS_SCF=1e-06 energy=-671.7099039873412 units=gap_units Integrated_spin_density=1.924e-05 opt_dir=/home/tks32/dft_pbe/apr_8_opt_fragments_subset/singlepoint_5_CH3OH time=95.0 free_energy=-670.54044596 cutoff=8.0 nneightol=1.2 pbc="T T T"
C       -0.85260221       0.54005185      -0.05614536      -0.96891193       1.89098273       0.92812650      -0.06251238      -0.02980497      -0.00946838        0        0        0       13      -0.59926011      -0.19416330      -0.09979440    -154.42492227       0.00493003       0.00252767       0.00049211       0.00016793
O        1.03642916      -0.53180413      -0.00374371       1.92148501      -1.95490099       0.13110114       0.20385982       0.06727461      -0.09490731        0        0        0       12       1.64680318      -0.76027596      -1.73141193    -437.06749324       0.00594373      -0.01178620       0.00121249      -0.00219049
H       -1.58842915      -0.21776977      -0.35465774       0.40141705       0.06509588      -0.24601051       0.00853164       0.03365049       0.02956471        0        0        0       11       0.07025352       0.51356954       0.10278725     -15.85092708       0.00454496      -0.00012708      -0.00052607       0.00011668
H        0.87033813      -1.40407288       0.38319789      -0.66690856       0.30451974      -0.40249640       0.00700469      -0.14025891       0.01313080        0        0        0       14       0.27754855      -0.28099222       0.35667886     -15.91245149       0.00607617       0.00736766       0.00013485      -0.00120859
H       -0.90860464       0.87522678       0.98478703       0.00266466      -0.03684773      -0.24807636      -0.01403893       0.04279284       0.01337531        0        0        0       14      -0.10223403       0.12991134      -0.07569232     -16.02692164       0.00514241       0.00092227       0.00123660       0.00046601
H       -0.56589386       1.29257701      -0.80163527      -0.22583135      -0.01910424      -0.10381681      -0.02016772       0.02273747      -0.02498094        0        0        0       15      -0.12567883       0.13537359       0.08579573     -16.15958685       0.00504511      -0.00295932       0.00237424       0.00017972
H        2.00876258      -0.55420886      -0.15180285      -0.46391488      -0.24974539      -0.05882756      -0.12267712       0.00360848       0.07328580        0        0        0       13      -1.16743228       0.45657701       1.36163681     -15.84183369       0.00549017       0.00405499      -0.00492422       0.00246874
7
Lattice="13.0 0.0 0.0 0.0 9.0 0.0 0.0 0.0 9.0" Properties=species:S:1:pos:R:3:momenta:R:3:forces:R:3:map_shift:I:3:n_neighb:I:1:force:R:3:local_energy:R:1:gap_var:R:1:gap_variance_gradient:R:3 EPS_SCF=1e-06 energy=-671.7129178163968 units=gap_units Integrated_spin_density=1.924e-05 opt_dir=/home/tks32/dft_pbe/apr_8_opt_fragments_subset/singlepoint_5_CH3OH time=98.0 free_energy=-670.39683016 cutoff=8.0 nneightol=1.2 pbc="T T T"
C       -0.84788281       0.54143985      -0.05470990      -0.95739262       1.74449859      -0.02655376      -0.05196943       0.00989476      -0.00942595        0        0        0       13      -0.19660060      -0.08021507      -0.03651339    -154.30627190       0.00505075       0.00102108       0.00051526      -0.00011876