7
Lattice="13.0 0.0 0.0 0.0 9.0 0.0 0.0 0.0 9.0" Properties=species:S:1:pos:R:3:momenta:R:3:forces:R:3 EPS_SCF=1e-06 energy=-670.683537825744 units=gap_units Integrated_spin_density=1.924e-05 opt_dir=/home/tks32/dft_pbe/apr_8_opt_fragments_subset/singlepoint_5_CH3OH time=125.0 free_energy=-670.683537825744 cutoff=8.0 nneightol=1.2 pbc="T T T"
C       -1.00341360       0.83987250      -0.02816445      -0.96709231       2.10785812       0.28491077       2.00594997       2.12220837       0.23654367
O        0.98202911      -1.27810790       0.19454580       0.87589455      -1.61485894       0.60505285      -0.04624859       6.30379577       0.74511438
H       -1.75952749       0.10537230      -0.02952149       0.28005047       0.03263853       0.09162116      -0.83433124      -0.83318335      -0.03734028
H        1.48753298      -1.97627198      -0.12530066       0.24592789      -0.84201486      -0.53397875       1.93058960      -1.79612842      -1.28303481
H       -0.52525210       1.18435263       0.92803334       0.12413297       0.23449149      -0.28643704      -1.02120189      -0.29268224      -0.92824146
H       -0.64349770       1.35825346      -0.94695172      -0.78730765      -0.04554027      -0.20999488      -0.83369488      -0.38536265       0.68453771
H        1.46212881      -0.23347103       0.00735918       0.22839407       0.12742593       0.04882589      -1.20106295      -5.11864747       0.58242078
7
Lattice="13.0 0.0 0.0 0.0 9.0 0.0 0.0 0.0 9.0" Properties=species:S:1:pos:R:3:momenta:R:3:forces:R:3 EPS_SCF=1e-06 energy=-671.275718939252 units=gap_units Integrated_spin_density=1.924e-05 opt_dir=/home/tks32/dft_pbe/apr_8_opt_fragments_subset/singlepoint_5_CH3OH time=125.0 free_energy=-671.275718939252 cutoff=8.0 nneightol=1.2 pbc="T T T"
C       -0.98335410       0.86109458      -0.02579901      -0.96709231       2.10785812       0.28491077      -0.24878143       0.23668852       0.02732978
O        0.98156662      -1.21506994       0.20199694       0.87589455      -1.61485894       0.60505285       1.82798890       1.73923697      -0.66483882
H       -1.76787080       0.09704047      -0.02989489       0.28005047       0.03263853       0.09162116       0.37560809       0.30759086      -0.01364445
H        1.50683888      -1.99423326      -0.13813101       0.24592789      -0.84201486      -0.53397875      -0.33276441       1.44404024       0.26013378
H       -0.53546412       1.18142581       0.91875093       0.12413297       0.23449149      -0.28643704      -0.53235932       0.17784516      -0.09842421
H       -0.65183465       1.35439983      -0.94010634      -0.78730765      -0.04554027      -0.20999488      -0.41166432       0.03943380       0.09502085
H        1.45011818      -0.28465750       0.01318339       0.22839407       0.12742593       0.04882589      -0.67802750      -3.94483555       0.39442308
7
Lattice="13.0 0.0 0.0 0.0 9.0 0.0 0.0 0.0 9.0" Properties=species:S:1:pos:R:3:momenta:R:3:forces:R:3 EPS_SCF=1e-06 energy=-671.1336668899557 units=gap_units Integrated_spin_density=1.924e-05 opt_dir=/home/tks32/dft_pbe/apr_8_opt_fragments_subset/singlepoint_5_CH3OH time=125.0 free_energy=-671.1336668899557 cutoff=8.0 nneightol=1.2 pbc="T T T"
C       -0.96825066       0.88300117      -0.02334604      -0.96709231       2.10785812       0.28491077      -2.07196179      -1.31955444      -0.22284885
O        1.00282713      -1.13771148       0.20081915       0.87589455      -1.61485894       0.60505285      -1.56276955      -8.23002848       0.31884745
H       -1.77092573       0.09318930      -0.03039275       0.28005047       0.03263853       0.09162116       1.17723609       1.07751804       0.01681575
H        1.52026818      -1.99327464      -0.14659359       0.24592789      -0.84201486      -0.53397875      -1.25604268       3.20678694       1.05449444
H       -0.55096778       1.18090060       0.90922961       0.12413297       0.23449149      -0.28643704      -0.00310002       0.66684452       0.82983195
H       -0.66421952       1.35139919      -0.93281872      -0.78730765      -0.04554027      -0.20999488       0.04575683       0.46627103      -0.53877174
H        1.43126840      -0.37750416       0.02310234       0.22839407       0.12742593       0.04882589       3.67088112       4.13216239      -1.45836900
7
Lattice="13.0 0.0 0.0 0.0 9.0 0.0 0.0 0.0 9.0" Properties=species:S:1:pos:R:3:momenta:R:3:forces:R:3 EPS_SCF=1e-06 energy=-671.3763489057854 units=gap_units Integrated_spin_density=1.924e-05 opt_dir=/home/tks32/dft_pbe/apr_8_opt_fragments_subset/singlepoint_5_CH3OH time=125.0 free_energy=-671.3763489057854 cutoff=8.0 nneightol=1.2 pbc="T T T"
C       -0.97343057       0.87970228      -0.02390316      -0.96709231       2.10785812       0.28491077      -1.61775485      -0.95162134      -0.15127304
O        0.99892020      -1.15828655       0.20161627       0.87589455      -1.61485894       0.60505285      -0.11610948      -4.66616397      -0.18688469
H       -1.76798264       0.09588310      -0.03035072       0.28005047       0.03263853       0.09162116       0.93697621       0.84306307       0.00838266
H        1.51712807      -1.98525767      -0.14395736       0.24592789      -0.84201486      -0.53397875      -1.00183322       2.64850209       0.84751644
H       -0.55097553       1.18256771       0.91130419       0.12413297       0.23449149      -0.28643704      -0.09892092       0.56511512       0.62321583
H       -0.66410513       1.35256486      -0.93416565      -0.78730765      -0.04554027      -0.20999488      -0.03588987       0.39026818      -0.41213826
H        1.44044560      -0.36717375       0.01945642       0.22839407       0.12742593       0.04882589       1.93353212       1.17083686      -0.72881894
7
Lattice="13.0 0.0 0.0 0.0 9.0 0.0 0.0 0.0 9.0" Properties=species:S:1:pos:R:3:momenta:R:3:forces:R:3 EPS_SCF=1e-06 energy=-671.5435022489158 units=gap_units Integrated_spin_density=1.924e-05 opt_dir=/home/tks32/dft_pbe/apr_8_opt_fragments_subset/singlepoint_5_CH3OH time=125.0 free_energy=-671.5435022489158 cutoff=8.0 nneightol=1.2 pbc="T T T"
C       -0.98283484       0.87394366      -0.02484802      -0.96709231       2.10785812       0.28491077      -0.77335410      -0.27101015      -0.03203744
O        0.99506360      -1.19048271       0.20178584       0.87589455      -1.61485894       0.60505285       0.60846534      -1.01024144      -0.27413715
H       -1.76258717       0.10077891      -0.03028831       0.28005047       0.03263853       0.09162116       0.48099394       0.39462143      -0.00585509
H        1.51136516      -1.97027847      -0.13910030       0.24592789      -0.84201486      -0.53397875      -0.35941708       1.45232173       0.36385581
H       -0.55127249       1.18572471       0.91499824       0.12413297       0.23449149      -0.28643704      -0.26587570       0.38712037       0.26829339
H       -0.66410738       1.35475802      -0.93658605      -0.78730765      -0.04554027      -0.20999488      -0.18014851       0.25665953      -0.19083261
H        1.45437312      -0.35444414       0.01403860       0.22839407       0.12742593       0.04882589       0.48933611      -1.20947147      -0.12928691
7
Lattice="13.0 0.0 0.0 0.0 9.0 0.0 0.0 0.0 9.0" Properties=species:S:1:pos:R:3:momenta:R:3:forces:R:3 EPS_SCF=1e-06 energy=-671.5273695639141 units=gap_units Integrated_spin_density=1.924e-05 opt_dir=/home/tks32/dft_pbe/apr_8_opt_fragments_subset/singlepoint_5_CH3OH time=125.0 free_energy=-671.5273695639141 cutoff=8.0 nneightol=1.2 pbc="T T T"
C       -0.99451162       0.86763498      -0.02583149      -0.96709231       2.10785812       0.28491077       0.27865989       0.58752242       0.09071583
O        0.99412057      -1.22365636       0.20079952       0.87589455      -1.61485894       0.60505285       0.50697282       2.24949926       0.06526294
H       -1.75573292       0.10682461      -0.03025646       0.28005047       0.03263853       0.09162116      -0.11213694      -0.19609334      -0.02108536
H        1.50468532      -1.95076343      -0.13321728       0.24592789      -0.84201486      -0.53397875       0.63421087      -0.17886825      -0.34563915
H       -0.55264435       1.19017433       0.91943752       0.12413297       0.23449149      -0.28643704      -0.44951426       0.17691460      -0.12982692
H       -0.66485785       1.35779817      -0.93955723      -0.78730765      -0.04554027      -0.20999488      -0.34681528       0.10061677       0.06654014
H        1.46894087      -0.34801232       0.00862543       0.22839407       0.12742593       0.04882589      -0.51137709      -2.73959145       0.27403253
7
Lattice="13.0 0.0 0.0 0.0 9.0 0.0 0.0 0.0 9.0" Properties=species:S:1:pos:R:3:momenta:R:3:forces:R:3 EPS_SCF=1e-06 energy=-671.5362544956497 units=gap_units Integrated_spin_density=1.924e-05 opt_dir=/home/tks32/dft_pbe/apr_8_opt_fragments_subset/singlepoint_5_CH3OH time=125.0 free_energy=-671.5362544956497 cutoff=8.0 nneightol=1.2 pbc="T T T"
C       -0.99433746       0.86800218      -0.02577479      -0.96709231       2.10785812       0.28491077       0.24958473       0.56512732       0.08549686
O        0.99443743      -1.22225042       0.20084031       0.87589455      -1.61485894       0.60505285       0.49155741       2.09718735       0.05977330
H       -1.75580301       0.10670205      -0.03026964       0.28005047       0.03263853       0.09162116      -0.09757833      -0.18162368      -0.02054996
H        1.50508170      -1.95087522      -0.13343331       0.24592789      -0.84201486      -0.53397875       0.60001342      -0.13357186      -0.32055490
H       -0.55292529       1.19028490       0.91935638       0.12413297       0.23449149      -0.28643704      -0.44240320       0.18352871      -0.11810018
H       -0.66507461       1.35786106      -0.93951564      -0.78730765      -0.04554027      -0.20999488      -0.34067455       0.10442179       0.06089157
H        1.46862126      -0.34972457       0.00879670       0.22839407       0.12742593       0.04882589      -0.46049948      -2.63506964       0.25304332
7
Lattice="13.0 0.0 0.0 0.0 9.0 0.0 0.0 0.0 9.0" Properties=species:S:1:pos:R:3:momenta:R:3:forces:R:3 EPS_SCF=1e-06 energy=-671.5522412752049 units=gap_units Integrated_spin_density=1.924e-05 opt_dir=/home/tks32/dft_pbe/apr_8_opt_fragments_subset/singlepoint_5_CH3OH time=125.0 free_energy=-671.5522412752049 cutoff=8.0 nneightol=1.2 pbc="T T T"
C       -0.99400830       0.86872306      -0.02566470      -0.96709231       2.10785812       0.28491077       0.19353994       0.52181791       0.07539845
O        0.99506218      -1.21953630       0.20091832       0.87589455      -1.61485894       0.60505285       0.45618144       1.79708713       0.05172346
H       -1.75593350       0.10646628      -0.03029570       0.28005047       0.03263853       0.09162116      -0.06958963      -0.15375421      -0.01951543
H        1.50585295      -1.95106811      -0.13384918       0.24592789      -0.84201486      -0.53397875       0.53527465      -0.04825017      -0.27289654
H       -0.55348377       1.19051120       0.91920176       0.12413297       0.23449149      -0.28643704      -0.42851678       0.19630837      -0.09539651
H       -0.66550504       1.35798979      -0.93943615      -0.78730765      -0.04554027      -0.20999488      -0.32870017       0.11179116       0.04994445
H        1.46801548      -0.35308595       0.00912565       0.22839407       0.12742593       0.04882589      -0.35818943      -2.42500020       0.21074212
7
Lattice="13.0 0.0 0.0 0.0 9.0 0.0 0.0 0.0 9.0" Properties=species:S:1:pos:R:3:momenta:R:3:forces:R:3 EPS_SCF=1e-06 energy=-671.5720753763064 units=gap_units Integrated_spin_density=1.924e-05 opt_dir=/home/tks32/dft_pbe/apr_8_opt_fragments_subset/singlepoint_5_CH3OH time=125.0 free_energy=-671.5720753763064 cutoff=8.0 nneightol=1.2 pbc="T T T"
C       -0.99356337       0.86977273      -0.02550770      -0.96709231       2.10785812       0.28491077       0.11467639       0.46049586       0.06111385
O        0.99597490      -1.21571303       0.20102825       0.87589455      -1.61485894       0.60505285       0.39437068       1.35898416       0.04562129
H       -1.75610439       0.10613597      -0.03033414       0.28005047       0.03263853       0.09162116      -0.03038225      -0.11459604      -0.01805672
H        1.50695828      -1.95127877      -0.13443310       0.24592789      -0.84201486      -0.53397875       0.44600469       0.06815062      -0.20687333
H       -0.55431559       1.19086568       0.91898932       0.12413297       0.23449149      -0.28643704      -0.40851539       0.21435621      -0.06322267
H       -0.66614494       1.35819153      -0.93932624      -0.78730765      -0.04554027      -0.20999488      -0.31150653       0.12226870       0.03438481
H        1.46719512      -0.35797412       0.00958360       0.22839407       0.12742593       0.04882589      -0.20464759      -2.10965951       0.14703277
7
Lattice="13.0 0.0 0.0 0.0 9.0 0.0 0.0 0.0 9.0" Properties=species:S:1:pos:R:3:momenta:R:3:forces:R:3 EPS_SCF=1e-06 energy=-671.5917120997767 units=gap_units Integrated_spin_density=1.924e-05 opt_dir=/home/tks32/dft_pbe/apr_8_opt_fragments_subset/singlepoint_5_CH3OH time=125.0 free_energy=-671.5917120997767 cutoff=8.0 nneightol=1.2 pbc="T T T"
C       -0.99306298       0.87111881      -0.02531313      -0.96709231       2.10785812       0.28491077       0.01903037       0.38534068       0.04370411
O        0.99714009      -1.21108756       0.20116696       0.87589455      -1.61485894       0.60505285       0.30309552       0.80940806       0.04553170
H       -1.75628468       0.10573880      -0.03038448       0.28005047       0.03263853       0.09162116       0.01685993      -0.06722036      -0.01629055
H        1.50834182      -1.95140897      -0.13513895       0.24592789      -0.84201486      -0.53397875       0.34101900       0.20252947      -0.12871077
H       -0.55542030       1.19137155       0.91874302       0.12413297       0.23449149      -0.28643704      -0.38335383       0.23633230      -0.02383789
H       -0.66699237       1.35847967      -0.93919734      -0.78730765      -0.04554027      -0.20999488      -0.29001075       0.13523150       0.01520254
H        1.46627842      -0.36421232       0.01012392       0.22839407       0.12742593       0.04882589      -0.00664026      -1.70162165       0.06440086
7
Lattice="13.0 0.0 0.0 0.0 9.0 0.0 0.0 0.0 9.0" Properties=species:S:1:pos:R:3:momenta:R:3:forces:R:3 EPS_SCF=1e-06 energy=-671.6073919545788 units=gap_units Integrated_spin_density=1.924e-05 opt_dir=/home/tks32/dft_pbe/apr_8_opt_fragments_subset/singlepoint_5_CH3OH time=125.0 free_energy=-671.6073919545788 cutoff=8.0 nneightol=1.2 pbc="T T T"
C       -0.99259304       0.87272676      -0.02509304      -0.96709231       2.10785812       0.28491077      -0.08548755       0.30179537       0.02465597
O        0.99850063      -1.20609183       0.20133865       0.87589455      -1.61485894       0.60505285       0.18181957       0.18818199       0.05537246
H       -1.75642960       0.10531219      -0.03044655       0.28005047       0.03263853       0.09162116       0.06800226      -0.01566991      -0.01438238
H        1.50993789      -1.95131776      -0.13590665       0.24592789      -0.84201486      -0.53397875       0.23144524       0.33781155      -0.04640753
H       -0.55680897       1.19206999       0.91849683       0.12413297       0.23449149      -0.28643704      -0.35427245       0.26041746       0.01966808
H       -0.66805344       1.35887814      -0.93906570      -0.78730765      -0.04554027      -0.20999488      -0.26545089       0.14992660      -0.00630808
H        1.46544655      -0.37157750       0.01067646       0.22839407       0.12742593       0.04882589       0.22394382      -1.22246307      -0.03259851
7
Lattice="13.0 0.0 0.0 0.0 9.0 0.0 0.0 0.0 9.0" Properties=species:S:1:pos:R:3:momenta:R:3:forces:R:3 EPS_SCF=1e-06 energy=-671.616879713502 units=gap_units Integrated_spin_density=1.924e-05 opt_dir=/home/tks32/dft_pbe/apr_8_opt_fragments_subset/singlepoint_5_CH3OH time=125.0 free_energy=-671.616879713502 cutoff=8.0 nneightol=1.2 pbc="T T T"
C       -0.99227912       0.87455876      -0.02486353      -0.96709231       2.10785812       0.28491077      -0.18820157       0.21726827       0.00611578
O        0.99995696      -1.20135571       0.20156378       0.87589455      -1.61485894       0.60505285       0.03586319      -0.44302990       0.07785605
H       -1.75647330       0.10490826      -0.03052074       0.28005047       0.03263853       0.09162116       0.11751042       0.03455359      -0.01257170
H        1.51166949      -1.95080490      -0.13665675       0.24592789      -0.84201486      -0.53397875       0.13156075       0.44981914       0.02944099
H       -0.55851055       1.19303068       0.91830033       0.12413297       0.23449149      -0.28643704      -0.32297480       0.28405189       0.06290048
H       -0.66934692       1.35942794      -0.93895526      -0.78730765      -0.04554027      -0.20999488      -0.23957601       0.16539587      -0.02836064
H        1.46498345      -0.37976504       0.01113218       0.22839407       0.12742593       0.04882589       0.46581803      -0.70805886      -0.13538096
7
Lattice="13.0 0.0 0.0 0.0 9.0 0.0 0.0 0.0 9.0" Properties=species:S:1:pos:R:3:momenta:R:3:forces:R:3 EPS_SCF=1e-06 energy=-671.6207731416259 units=gap_units Integrated_spin_density=1.924e-05 opt_dir=/home/tks32/dft_pbe/apr_8_opt_fragments_subset/singlepoint_5_CH3OH time=125.0 free_energy=-671.6207731416259 cutoff=8.0 nneightol=1.2 pbc="T T T"
C       -0.99227026       0.87652351      -0.02464807      -0.96709231       2.10785812       0.28491077      -0.27478225       0.14232619      -0.00900641
O        1.00131981      -1.19773745       0.20187961       0.87589455      -1.61485894       0.60505285      -0.11521962      -0.98867641       0.11099543
H       -1.75634176       0.10459496      -0.03060581       0.28005047       0.03263853       0.09162116       0.15811205       0.07611007      -0.01117602
H        1.51341924      -1.94968921      -0.13728903       0.24592789      -0.84201486      -0.53397875       0.05808069       0.51021123       0.08601677
H       -0.56051163       1.19430835       0.91821495       0.12413297       0.23449149      -0.28643704      -0.29229036       0.30369346       0.09967240
H       -0.67085943       1.36016328      -0.93889711      -0.78730765      -0.04554027      -0.20999488      -0.21514848       0.18015876      -0.04829817
H        1.46524403      -0.38816347       0.01134546       0.22839407       0.12742593       0.04882589       0.68124798      -0.22382331      -0.22820399
7
Lattice="13.0 0.0 0.0 0.0 9.0 0.0 0.0 0.0 9.0" Properties=species:S:1:pos:R:3:momenta:R:3:forces:R:3 EPS_SCF=1e-06 energy=-671.6223027157235 units=gap_units Integrated_spin_density=1.924e-05 opt_dir=/home/tks32/dft_pbe/apr_8_opt_fragments_subset/singlepoint_5_CH3OH time=125.0 free_energy=-671.6223027157235 cutoff=8.0 nneightol=1.2 pbc="T T T"
C       -0.99267436       0.87868246      -0.02444830      -0.96709231       2.10785812       0.28491077      -0.34080571       0.07988545      -0.01967192
O        1.00249592      -1.19564086       0.20235905       0.87589455      -1.61485894       0.60505285      -0.27066760      -1.42956621       0.15646005
H       -1.75597396       0.10439916      -0.03070681       0.28005047       0.03263853       0.09162116       0.18737530       0.10655489      -0.01032612
H        1.51523876      -1.94781808      -0.13778575       0.24592789      -0.84201486      -0.53397875       0.01609787       0.50490747       0.11903766
H       -0.56293186       1.19602956       0.91828018       0.12413297       0.23449149      -0.28643704      -0.26235680       0.31797613       0.12780636
H       -0.67268007       1.36116196      -0.93891211      -0.78730765      -0.04554027      -0.20999488      -0.19273112       0.19404719      -0.06536823
H        1.46652559      -0.39681421       0.01121373       0.22839407       0.12742593       0.04882589       0.86308807       0.22619508      -0.30793780
7
Lattice="13.0 0.0 0.0 0.0 9.0 0.0 0.0 0.0 9.0" Properties=species:S:1:pos:R:3:momenta:R:3:forces:R:3 EPS_SCF=1e-06 energy=-671.6230027410353 units=gap_units Integrated_spin_density=1.924e-05 opt_dir=/home/tks32/dft_pbe/apr_8_opt_fragments_subset/singlepoint_5_CH3OH time=125.0 free_energy=-671.6230027410353 cutoff=8.0 nneightol=1.2 pbc="T T T"
C       -0.99273879       0.87869756      -0.02445202      -0.96709231       2.10785812       0.28491077      -0.33708774       0.08245043      -0.01889164
O        1.00244474      -1.19591114       0.20238863       0.87589455      -1.61485894       0.60505285      -0.26365702      -1.40068229       0.15528893
H       -1.75593854       0.10441931      -0.03070876       0.28005047       0.03263853       0.09162116       0.18537896       0.10450623      -0.01042015
H        1.51524180      -1.94772262      -0.13776325       0.24592789      -0.84201486      -0.53397875       0.02111866       0.49499343       0.11520226
H       -0.56298146       1.19608967       0.91830435       0.12413297       0.23449149      -0.28643704      -0.26272609       0.31701513       0.12617836
H       -0.67271651       1.36119864      -0.93892447      -0.78730765      -0.04554027      -0.20999488      -0.19323656       0.19380410      -0.06473423
H        1.46668877      -0.39677144       0.01115551       0.22839407       0.12742593       0.04882589       0.85020979       0.20791297      -0.30262353
7
Lattice="13.0 0.0 0.0 0.0 9.0 0.0 0.0 0.0 9.0" Properties=species:S:1:pos:R:3:momenta:R:3:forces:R:3 EPS_SCF=1e-06 energy=-671.6243526807312 units=gap_units Integrated_spin_density=1.924e-05 opt_dir=/home/tks32/dft_pbe/apr_8_opt_fragments_subset/singlepoint_5_CH3OH time=125.0 free_energy=-671.6243526807312 cutoff=8.0 nneightol=1.2 pbc="T T T"
C       -0.99286700       0.87872833      -0.02445930      -0.96709231       2.10785812       0.28491077      -0.32972357       0.08753271      -0.01734972
O        1.00234376      -1.19644617       0.20244761       0.87589455      -1.61485894       0.60505285      -0.25010733      -1.34411952       0.15310336
H       -1.75586804       0.10445921      -0.03071269       0.28005047       0.03263853       0.09162116       0.18142171       0.10044527      -0.01060622
H        1.51524894      -1.94753359      -0.13771899       0.24592789      -0.84201486      -0.53397875       0.03105606       0.47536659       0.10761324
H       -0.56308084       1.19620982       0.91835238       0.12413297       0.23449149      -0.28643704      -0.26345027       0.31511035       0.12295488
H       -0.67278956       1.36127203      -0.93894908      -0.78730765      -0.04554027      -0.20999488      -0.19423435       0.19332301      -0.06347701
H        1.46701274      -0.39668964       0.01104007       0.22839407       0.12742593       0.04882589       0.82503776       0.17234159      -0.29223854
7
Lattice="13.0 0.0 0.0 0.0 9.0 0.0 0.0 0.0 9.0" Properties=species:S:1:pos:R:3:momenta:R:3:forces:R:3 EPS_SCF=1e-06 energy=-671.6262583744714 units=gap_units Integrated_spin_density=1.924e-05 opt_dir=/home/tks32/dft_pbe/apr_8_opt_fragments_subset/singlepoint_5_CH3OH time=125.0 free_energy=-671.6262583744714 cutoff=8.0 nneightol=1.2 pbc="T T T"
C       -0.99305778       0.87877603      -0.02446982      -0.96709231       2.10785812       0.28491077      -0.31885719       0.09503685      -0.01508395
O        1.00219570      -1.19723502       0.20253569       0.87589455      -1.61485894       0.60505285      -0.23091820      -1.26223209       0.15019749
H       -1.75576311       0.10451808      -0.03071865       0.28005047       0.03263853       0.09162116       0.17557404       0.09444473      -0.01088035
H        1.51526247      -1.94725478      -0.13765456       0.24592789      -0.84201486      -0.53397875       0.04569585       0.44643072       0.09643784
H       -0.56323051       1.19639000       0.91842372       0.12413297       0.23449149      -0.28643704      -0.26449958       0.31229608       0.11820098
H       -0.67289971       1.36138229      -0.93898574      -0.78730765      -0.04554027      -0.20999488      -0.19569781       0.19261407      -0.06161773
H        1.46749295      -0.39657662       0.01086936       0.22839407       0.12742593       0.04882589       0.78870289       0.12140965      -0.27725427
7
Lattice="13.0 0.0 0.0 0.0 9.0 0.0 0.0 0.0 9.0" Properties=species:S:1:pos:R:3:momenta:R:3:forces:R:3 EPS_SCF=1e-06 energy=-671.6285928984272 units=gap_units Integrated_spin_density=1.924e-05 opt_dir=/home/tks32/dft_pbe/apr_8_opt_fragments_subset/singlepoint_5_CH3OH time=125.0 free_energy=-671.6285928984272 cutoff=8.0 nneightol=1.2 pbc="T T T"
C       -0.99330945       0.87884280      -0.02448308      -0.96709231       2.10785812       0.28491077      -0.30470589       0.10481887      -0.01215172
O        1.00200452      -1.19826155       0.20265263       0.87589455      -1.61485894       0.60505285      -0.20732773      -1.15838842       0.14696463
H       -1.75562463       0.10459476      -0.03072674       0.28005047       0.03263853       0.09162116       0.16794169       0.08661415      -0.01123659
H        1.51528610      -1.94689188      -0.13757238       0.24592789      -0.84201486      -0.53397875       0.06470670       0.40879228       0.08193283
H       -0.56343154       1.19663048       0.91851757       0.12413297       0.23449149      -0.28643704      -0.26582782       0.30862359       0.11201426
H       -0.67304793       1.36152982      -0.93903418      -0.78730765      -0.04554027      -0.20999488      -0.19758623       0.19169256      -0.05918785
H        1.46812295      -0.39644445       0.01064619       0.22839407       0.12742593       0.04882589       0.74279928       0.05784697      -0.25833556
7
Lattice="13.0 0.0 0.0 0.0 9.0 0.0 0.0 0.0 9.0" Properties=species:S:1:pos:R:3:momenta:R:3:forces:R:3 EPS_SCF=1e-06 energy=-671.6312114599699 units=gap_units Integrated_spin_density=1.924e-05 opt_dir=/home/tks32/dft_pbe/apr_8_opt_fragments_subset/singlepoint_5_CH3OH time=125.0 free_energy=-671.6312114599699 cutoff=8.0 nneightol=1.2 pbc="T T T"
C       -0.99361995       0.87893179      -0.02449835      -0.96709231       2.10785812       0.28491077      -0.28756340       0.11668369      -0.00863075
O        1.00177531      -1.19950477       0.20279839       0.87589455      -1.61485894       0.60505285      -0.18078525      -1.03678112       0.14384289
H       -1.75545371       0.10468765      -0.03073712       0.28005047       0.03263853       0.09162116       0.15866698       0.07710174      -0.01166697
H        1.51532521      -1.94645258      -0.13747584       0.24592789      -0.84201486      -0.53397875       0.08762958       0.36326331       0.06445058
H       -0.56368576       1.19693199       0.91863292       0.12413297       0.23449149      -0.28643704      -0.26737095       0.30416128       0.10452564
H       -0.67323580       1.36171545      -0.93909410      -0.78730765      -0.04554027      -0.20999488      -0.19984430       0.19057943      -0.05622937
H        1.46889472      -0.39630954       0.01037411       0.22839407       0.12742593       0.04882589       0.68926733      -0.01500833      -0.23629202
7
Lattice="13.0 0.0 0.0 0.0 9.0 0.0 0.0 0.0 9.0" Properties=species:S:1:pos:R:3:momenta:R:3:forces:R:3 EPS_SCF=1e-06 energy=-671.6339677281768 units=gap_units Integrated_spin_density=1.924e-05 opt_dir=/home/tks32/dft_pbe/apr_8_opt_fragments_subset/singlepoint_5_CH3OH time=125.0 free_energy=-671.6339677281768 cutoff=8.0 nneightol=1.2 pbc="T T T"
C       -0.99398688       0.87904738      -0.02451473      -0.96709231       2.10785812       0.28491077      -0.26780727       0.13037897      -0.00462062
O        1.00151403      -1.20093904       0.20297333       0.87589455      -1.61485894       0.60505285      -0.15258525      -0.90184475       0.14116097
H       -1.75525162       0.10479470      -0.03075001       0.28005047       0.03263853       0.09162116       0.14793264       0.06609864      -0.01216145
H        1.51538706      -1.94594671      -0.13736934       0.24592789      -0.84201486      -0.53397875       0.11386103       0.31087221       0.04444917
H       -0.56399589       1.19729588       0.91876852       0.12413297       0.23449149      -0.28643704      -0.26904505       0.29899571       0.09590171
H       -0.67346567       1.36194048      -0.93916514      -0.78730765      -0.04554027      -0.20999488      -0.20240092       0.18930226      -0.05279604
H        1.46979898      -0.39619270       0.01005737       0.22839407       0.12742593       0.04882589       0.63004481      -0.09380304      -0.21193373
7
Lattice="13.0 0.0 0.0 0.0 9.0 0.0 0.0 0.0 9.0" Properties=species:S:1:pos:R:3:momenta:R:3:forces:R:3 EPS_SCF=1e-06 energy=-671.6367248396589 units=gap_units Integrated_spin_density=1.924e-05 opt_dir=/home/tks32/dft_pbe/apr_8_opt_fragments_subset/singlepoint_5_CH3OH time=125.0 free_energy=-671.6367248396589 cutoff=8.0 nneightol=1.2 pbc="T T T"
C       -0.99440741       0.87919536      -0.02453102      -0.96709231       2.10785812       0.28491077      -0.24591247       0.14558423      -0.00024533
O        1.00122743      -1.20253396       0.20317837       0.87589455      -1.61485894       0.60505285      -0.12209312      -0.75528442       0.13840098
H       -1.75501986       0.10491333      -0.03076572       0.28005047       0.03263853       0.09162116       0.13596913       0.05384700      -0.01270773
H        1.51548112      -1.94538661      -0.13725851       0.24592789      -0.84201486      -0.53397875       0.14262746       0.25288889       0.02250906
H       -0.56436572       1.19772419       0.91892291       0.12413297       0.23449149      -0.28643704      -0.27074341       0.29323405       0.08634955