7
Lattice="13.0 0.0 0.0 0.0 9.0 0.0 0.0 0.0 9.0" Properties=species:S:1:pos:R:3:momenta:R:3:forces:R:3 EPS_SCF=1e-06 energy=-670.7845515630739 units=gap_units Integrated_spin_density=1.924e-05 opt_dir=/home/tks32/dft_pbe/apr_8_opt_fragments_subset/singlepoint_5_CH3OH time=75.0 free_energy=-670.7845515630739 cutoff=8.0 nneightol=1.2 pbc="T T T"
C       -0.70600238       0.29517654      -0.06535186      -0.60708141       1.26274420       0.32472538       0.98503760      -0.05637690       0.95089275
O        0.56989308      -0.51111854       0.06536942       0.55675306      -1.71501746      -1.18544500      -0.97156462       0.41020152      -2.03434644
H       -1.48574942      -0.29534313      -0.56925542       0.64017403       0.01670734      -0.20812835       0.20275862      -0.15819621       0.12914384
H        0.86944299      -0.46412444       0.96311821      -0.21455830      -0.08351048       0.88409433       0.39522589       0.07172734       1.26346862
H       -1.10506833       0.63018534       0.92668639      -0.13669120      -0.18074068      -0.35028600       0.39893403      -0.45560905      -0.71691074
H       -0.50398559       1.20795179      -0.65770102       0.08170045       0.01641508       0.11573944      -0.13037973       0.04261889      -0.12041523
H        2.36146966      -0.86272754      -0.66286572      -0.32029664       0.68340200       0.41930020      -0.88001180       0.14563441       0.52816719
7
Lattice="13.0 0.0 0.0 0.0 9.0 0.0 0.0 0.0 9.0" Properties=species:S:1:pos:R:3:momenta:R:3:forces:R:3 EPS_SCF=1e-06 energy=-670.85185347403 units=gap_units Integrated_spin_density=1.924e-05 opt_dir=/home/tks32/dft_pbe/apr_8_opt_fragments_subset/singlepoint_5_CH3OH time=75.0 free_energy=-670.85185347403 cutoff=8.0 nneightol=1.2 pbc="T T T"
C       -0.69615200       0.29461277      -0.05584293      -0.60708141       1.26274420       0.32472538       0.55116222      -0.11719912       0.01118922
O        0.56017743      -0.50701652       0.04502596       0.55675306      -1.71501746      -1.18544500      -0.25376172       0.40895330      -0.19723504
H       -1.48372183      -0.29692509      -0.56796398       0.64017403       0.01670734      -0.20812835       0.34218916       0.00352925       0.27242435
H        0.87339525      -0.46340717       0.97575290      -0.21455830      -0.08351048       0.88409433       0.00285215      -0.08443493      -0.29538266
H       -1.10107899       0.62562925       0.91951728      -0.13669120      -0.18074068      -0.35028600       0.31393515      -0.34073110      -0.26340864
H       -0.50528939       1.20837798      -0.65890517       0.08170045       0.01641508       0.11573944      -0.13415495      -0.00625375      -0.02203723
H        2.35266954      -0.86127120      -0.65758405      -0.32029664       0.68340200       0.41930020      -0.82222201       0.13613635       0.49445000
7
Lattice="13.0 0.0 0.0 0.0 9.0 0.0 0.0 0.0 9.0" Properties=species:S:1:pos:R:3:momenta:R:3:forces:R:3 EPS_SCF=1e-06 energy=-670.8605538897519 units=gap_units Integrated_spin_density=1.924e-05 opt_dir=/home/tks32/dft_pbe/apr_8_opt_fragments_subset/singlepoint_5_CH3OH time=75.0 free_energy=-670.8605538897519 cutoff=8.0 nneightol=1.2 pbc="T T T"
C       -0.68052067       0.29266666      -0.04714754      -0.60708141       1.26274420       0.32472538      -0.07407951      -0.04990903      -0.95126938
O        0.54831820      -0.49830445       0.02429560       0.55675306      -1.71501746      -1.18544500       0.58317607       0.24018638       1.31779749
H       -1.47769633      -0.29830553      -0.56345744       0.64017403       0.01670734      -0.20812835       0.38831453       0.12277695       0.35470853
H        0.87698729      -0.46379813       0.98349803      -0.21455830      -0.08351048       0.88409433      -0.26870813      -0.20928078      -1.50697865
H       -1.09363475       0.61734599       0.90983151      -0.13669120      -0.18074068      -0.35028600       0.19248315      -0.18892189       0.28368882
H       -0.50810967       1.20868478      -0.66025944       0.08170045       0.01641508       0.11573944      -0.11158105      -0.02925292       0.05055039
H        2.33465594      -0.85828929      -0.64676074      -0.32029664       0.68340200       0.41930020      -0.70960505       0.11440130       0.45150280
7
Lattice="13.0 0.0 0.0 0.0 9.0 0.0 0.0 0.0 9.0" Properties=species:S:1:pos:R:3:momenta:R:3:forces:R:3 EPS_SCF=1e-06 energy=-670.8756377078166 units=gap_units Integrated_spin_density=1.924e-05 opt_dir=/home/tks32/dft_pbe/apr_8_opt_fragments_subset/singlepoint_5_CH3OH time=75.0 free_energy=-670.8756377078166 cutoff=8.0 nneightol=1.2 pbc="T T T"
C       -0.68070586       0.29254188      -0.04952571      -0.60708141       1.26274420       0.32472538      -0.04304362      -0.01905437      -0.74360273
O        0.54977614      -0.49770398       0.02759010       0.55675306      -1.71501746      -1.18544500       0.49219083       0.22517149       0.99720037
H       -1.47672555      -0.29799859      -0.56257067       0.64017403       0.01670734      -0.20812835       0.34159668       0.08148754       0.30680391
H        0.87631552      -0.46432134       0.97973059      -0.21455830      -0.08351048       0.88409433      -0.19220972      -0.18736187      -1.23732153
H       -1.09315355       0.61687369       0.91054074      -0.13669120      -0.18074068      -0.35028600       0.21013434      -0.20411195       0.20254253
H       -0.50838863       1.20861165      -0.66013306       0.08170045       0.01641508       0.11573944      -0.09959887      -0.01041414       0.01837200
H        2.33288193      -0.85800329      -0.64563198      -0.32029664       0.68340200       0.41930020      -0.70906964       0.11428331       0.45600545
7
Lattice="13.0 0.0 0.0 0.0 9.0 0.0 0.0 0.0 9.0" Properties=species:S:1:pos:R:3:momenta:R:3:forces:R:3 EPS_SCF=1e-06 energy=-670.8957444498658 units=gap_units Integrated_spin_density=1.924e-05 opt_dir=/home/tks32/dft_pbe/apr_8_opt_fragments_subset/singlepoint_5_CH3OH time=75.0 free_energy=-670.8957444498658 cutoff=8.0 nneightol=1.2 pbc="T T T"
C       -0.68099316       0.29237619      -0.05374988      -0.60708141       1.26274420       0.32472538       0.01749357       0.03396075      -0.38131271
O        0.55246756      -0.49653256       0.03334961       0.55675306      -1.71501746      -1.18544500       0.31905739       0.19887209       0.39428356
H       -1.47489458      -0.29749399      -0.56091281       0.64017403       0.01670734      -0.20812835       0.25396156       0.00630732       0.22007909
H        0.87517230      -0.46531726       0.97287252      -0.21455830      -0.08351048       0.88409433      -0.04288558      -0.14883179      -0.72433490
H       -1.09213160       0.61587663       0.91174662      -0.13669120      -0.18074068      -0.35028600       0.23781688      -0.22800201       0.06543061
H       -0.50891879       1.20851664      -0.65996784       0.08170045       0.01641508       0.11573944      -0.07804206       0.02374457      -0.03858022
H        2.32929828      -0.85742563      -0.64333823      -0.32029664       0.68340200       0.41930020      -0.70740175       0.11394907       0.46443456
7
Lattice="13.0 0.0 0.0 0.0 9.0 0.0 0.0 0.0 9.0" Properties=species:S:1:pos:R:3:momenta:R:3:forces:R:3 EPS_SCF=1e-06 energy=-670.9088173363225 units=gap_units Integrated_spin_density=1.924e-05 opt_dir=/home/tks32/dft_pbe/apr_8_opt_fragments_subset/singlepoint_5_CH3OH time=75.0 free_energy=-670.9088173363225 cutoff=8.0 nneightol=1.2 pbc="T T T"
C       -0.68119332       0.29234047      -0.05882487      -0.60708141       1.26274420       0.32472538       0.09811990       0.09349157       0.03678911
O        0.55595521      -0.49481423       0.03984973       0.55675306      -1.71501746      -1.18544500       0.10177690       0.16930290      -0.35624179
H       -1.47239870      -0.29701879      -0.55868587       0.64017403       0.01670734      -0.20812835       0.13860519      -0.08676424       0.11249175
H        0.87400020      -0.46671057       0.96428163      -0.21455830      -0.08351048       0.88409433       0.15193197      -0.10589440      -0.07851076
H       -1.09041774       0.61421795       0.91305040      -0.13669120      -0.18074068      -0.35028600       0.26225794      -0.24903371      -0.08258875
H       -0.50965653       1.20851043      -0.65994796       0.08170045       0.01641508       0.11573944      -0.05131732       0.06603354      -0.10637974
H        2.32371090      -0.85652525      -0.63972305      -0.32029664       0.68340200       0.41930020      -0.70137457       0.11286435       0.47444017
7
Lattice="13.0 0.0 0.0 0.0 9.0 0.0 0.0 0.0 9.0" Properties=species:S:1:pos:R:3:momenta:R:3:forces:R:3 EPS_SCF=1e-06 energy=-670.9134319586823 units=gap_units Integrated_spin_density=1.924e-05 opt_dir=/home/tks32/dft_pbe/apr_8_opt_fragments_subset/singlepoint_5_CH3OH time=75.0 free_energy=-670.9134319586823 cutoff=8.0 nneightol=1.2 pbc="T T T"
C       -0.68099107       0.29267267      -0.06324899      -0.60708141       1.26274420       0.32472538       0.17038111       0.13795896       0.36715834
O        0.55949073      -0.49260792       0.04431149       0.55675306      -1.71501746      -1.18544500      -0.08287337       0.14679841      -0.99278754
H       -1.46961224      -0.29692924      -0.55624323       0.64017403       0.01670734      -0.20812835       0.02324542      -0.16853224       0.01400714
H        0.87353741      -0.46837723       0.95624385      -0.21455830      -0.08351048       0.88409433       0.33097193      -0.07698981       0.47715301
H       -1.08785321       0.61175461       0.91390194      -0.13669120      -0.18074068      -0.35028600       0.26717823      -0.25269586      -0.18164778
H       -0.51052049       1.20876218      -0.66034465       0.08170045       0.01641508       0.11573944      -0.02613909       0.10385955      -0.16394878
H        2.31594888      -0.85527505      -0.63462041      -0.32029664       0.68340200       0.41930020      -0.68276423       0.10960100       0.48006561
7
Lattice="13.0 0.0 0.0 0.0 9.0 0.0 0.0 0.0 9.0" Properties=species:S:1:pos:R:3:momenta:R:3:forces:R:3 EPS_SCF=1e-06 energy=-670.9149555099858 units=gap_units Integrated_spin_density=1.924e-05 opt_dir=/home/tks32/dft_pbe/apr_8_opt_fragments_subset/singlepoint_5_CH3OH time=75.0 free_energy=-670.9149555099858 cutoff=8.0 nneightol=1.2 pbc="T T T"
C       -0.68088458       0.29275890      -0.06301952      -0.60708141       1.26274420       0.32472538       0.16455626       0.13365230       0.34083320
O        0.55943894      -0.49251617       0.04369100       0.55675306      -1.71501746      -1.18544500      -0.06770627       0.14779214      -0.94335586
H       -1.46959771      -0.29703457      -0.55623447       0.64017403       0.01670734      -0.20812835       0.02664741      -0.16324074       0.01842848
H        0.87374427      -0.46842535       0.95654207      -0.21455830      -0.08351048       0.88409433       0.32019826      -0.08025659       0.43507307
H       -1.08768622       0.61159667       0.91378841      -0.13669120      -0.18074068      -0.35028600       0.26300417      -0.24885032      -0.16917239
H       -0.51053683       1.20882709      -0.66044712       0.08170045       0.01641508       0.11573944      -0.02689128       0.10169479      -0.16044100
H        2.31552215      -0.85520655      -0.63432037      -0.32029664       0.68340200       0.41930020      -0.67980854       0.10920843       0.47863449
7
Lattice="13.0 0.0 0.0 0.0 9.0 0.0 0.0 0.0 9.0" Properties=species:S:1:pos:R:3:momenta:R:3:forces:R:3 EPS_SCF=1e-06 energy=-670.9177798413335 units=gap_units Integrated_spin_density=1.924e-05 opt_dir=/home/tks32/dft_pbe/apr_8_opt_fragments_subset/singlepoint_5_CH3OH time=75.0 free_energy=-670.9177798413335 cutoff=8.0 nneightol=1.2 pbc="T T T"
C       -0.68067521       0.29292871      -0.06257785      -0.60708141       1.26274420       0.32472538       0.15326521       0.12529199       0.28973699
O        0.55934561      -0.49233164       0.04248173       0.55675306      -1.71501746      -1.18544500      -0.03852309       0.14965108      -0.84792255
H       -1.46956625      -0.29724200      -0.55621388       0.64017403       0.01670734      -0.20812835       0.03313890      -0.15298445       0.02695492
H        0.87415135      -0.46852402       0.95711063      -0.21455830      -0.08351048       0.88409433       0.29953487      -0.08655732       0.35393153
H       -1.08735449       0.61128285       0.91356952      -0.13669120      -0.18074068      -0.35028600       0.25480113      -0.24131012      -0.14487466
H       -0.51057008       1.20895567      -0.66065003       0.08170045       0.01641508       0.11573944      -0.02832905       0.09749257      -0.15363403
H        2.31466908      -0.85506955      -0.63372012      -0.32029664       0.68340200       0.41930020      -0.67388797       0.10841624       0.47580780
7
Lattice="13.0 0.0 0.0 0.0 9.0 0.0 0.0 0.0 9.0" Properties=species:S:1:pos:R:3:momenta:R:3:forces:R:3 EPS_SCF=1e-06 energy=-670.9215156294398 units=gap_units Integrated_spin_density=1.924e-05 opt_dir=/home/tks32/dft_pbe/apr_8_opt_fragments_subset/singlepoint_5_CH3OH time=75.0 free_energy=-670.9215156294398 cutoff=8.0 nneightol=1.2 pbc="T T T"
C       -0.68036995       0.29317704      -0.06195949      -0.60708141       1.26274420       0.32472538       0.13719858       0.11339618       0.21706364
O        0.55923225      -0.49205148       0.04074704       0.55675306      -1.71501746      -1.18544500       0.00238853       0.15212523      -0.71333134
H       -1.46951268      -0.29754529      -0.55617480       0.64017403       0.01670734      -0.20812835       0.04209419      -0.13841889       0.03894143
H        0.87474605      -0.46867881       0.95789213      -0.21455830      -0.08351048       0.88409433       0.27073726      -0.09543390       0.23973441
H       -1.08686170       0.61081646       0.91326208      -0.13669120      -0.18074068      -0.35028600       0.24287191      -0.23038350      -0.11010929
H       -0.51062161       1.20914571      -0.66094976       0.08170045       0.01641508       0.11573944      -0.03031347       0.09150582      -0.14395412
H        2.31338765      -0.85486361      -0.63281720      -0.32029664       0.68340200       0.41930020      -0.66497700       0.10720905       0.47165526
7
Lattice="13.0 0.0 0.0 0.0 9.0 0.0 0.0 0.0 9.0" Properties=species:S:1:pos:R:3:momenta:R:3:forces:R:3 EPS_SCF=1e-06 energy=-670.9257083804983 units=gap_units Integrated_spin_density=1.924e-05 opt_dir=/home/tks32/dft_pbe/apr_8_opt_fragments_subset/singlepoint_5_CH3OH time=75.0 free_energy=-670.9257083804983 cutoff=8.0 nneightol=1.2 pbc="T T T"
C       -0.67997901       0.29349659      -0.06121910      -0.60708141       1.26274420       0.32472538       0.11732610       0.09876446       0.12775515
O        0.55913225      -0.49167048       0.03858159       0.55675306      -1.71501746      -1.18544500       0.05166898       0.15485935      -0.54968769
H       -1.46942880      -0.29793550      -0.55610664       0.64017403       0.01670734      -0.20812835       0.05258831      -0.12052398       0.05340476
H        0.87551060      -0.46889896       0.95879854      -0.21455830      -0.08351048       0.88409433       0.23637085      -0.10622062       0.10131135
H       -1.08621246       0.61020157       0.91289212      -0.13669120      -0.18074068      -0.35028600       0.22770122      -0.21654948      -0.06700553
H       -0.51069366       1.20939425      -0.66134146       0.08170045       0.01641508       0.11573944      -0.03262814       0.08410889      -0.13205547
H        2.31167109      -0.85458746      -0.63160506      -0.32029664       0.68340200       0.41930020      -0.65302731       0.10556139       0.46627743
7
Lattice="13.0 0.0 0.0 0.0 9.0 0.0 0.0 0.0 9.0" Properties=species:S:1:pos:R:3:momenta:R:3:forces:R:3 EPS_SCF=1e-06 energy=-670.9299632295545 units=gap_units Integrated_spin_density=1.924e-05 opt_dir=/home/tks32/dft_pbe/apr_8_opt_fragments_subset/singlepoint_5_CH3OH time=75.0 free_energy=-670.9299632295545 cutoff=8.0 nneightol=1.2 pbc="T T T"
C       -0.67951611       0.29387767      -0.06043184      -0.60708141       1.26274420       0.32472538       0.09484266       0.08250762       0.02868993
O        0.55909115      -0.49118102       0.03611245       0.55675306      -1.71501746      -1.18544500       0.10495317       0.15741590      -0.37021949
H       -1.46930355      -0.29840076      -0.55599476       0.64017403       0.01670734      -0.20812835       0.06341565      -0.10060846       0.06900716
H        0.87642241      -0.46919762       0.95971019      -0.21455830      -0.08351048       0.88409433       0.19973490      -0.11806170      -0.04985154
H       -1.08541265       0.60944322       0.91249575      -0.13669120      -0.18074068      -0.35028600       0.21000111      -0.20048778      -0.01859118
H       -0.51078938       1.20969755      -0.66181896       0.08170045       0.01641508       0.11573944      -0.03497428       0.07579778      -0.11883949
H        2.30950814      -0.85423902      -0.63007283      -0.32029664       0.68340200       0.41930020      -0.63797321       0.10343664       0.45980460
7
Lattice="13.0 0.0 0.0 0.0 9.0 0.0 0.0 0.0 9.0" Properties=species:S:1:pos:R:3:momenta:R:3:forces:R:3 EPS_SCF=1e-06 energy=-670.9340620126676 units=gap_units Integrated_spin_density=1.924e-05 opt_dir=/home/tks32/dft_pbe/apr_8_opt_fragments_subset/singlepoint_5_CH3OH time=75.0 free_energy=-670.9340620126676 cutoff=8.0 nneightol=1.2 pbc="T T T"
C       -0.67899980       0.29430737      -0.05969314      -0.60708141       1.26274420       0.32472538       0.07113125       0.06606412      -0.07120425
O        0.55916449      -0.49057502       0.03350103       0.55675306      -1.71501746      -1.18544500       0.15699437       0.15931417      -0.19098502
H       -1.46912415      -0.29892526      -0.55582152       0.64017403       0.01670734      -0.20812835       0.07313835      -0.08030706       0.08406350
H        0.87745301      -0.46959053       0.96047827      -0.21455830      -0.08351048       0.88409433       0.16472480      -0.12993804      -0.19992002
H       -1.08447205       0.60854994       0.91211946      -0.13669120      -0.18074068      -0.35028600       0.19076436      -0.18311546       0.03110786
H       -0.51091230       1.21005019      -0.66237365       0.08170045       0.01641508       0.11573944      -0.03697701       0.06719074      -0.10546527
H        2.30689081      -0.85381668      -0.62821046      -0.32029664       0.68340200       0.41930020      -0.61977612       0.10079152       0.45240320
7
Lattice="13.0 0.0 0.0 0.0 9.0 0.0 0.0 0.0 9.0" Properties=species:S:1:pos:R:3:momenta:R:3:forces:R:3 EPS_SCF=1e-06 energy=-670.9380281877297 units=gap_units Integrated_spin_density=1.924e-05 opt_dir=/home/tks32/dft_pbe/apr_8_opt_fragments_subset/singlepoint_5_CH3OH time=75.0 free_energy=-670.9380281877297 cutoff=8.0 nneightol=1.2 pbc="T T T"
C       -0.67845444       0.29476903      -0.05910909      -0.60708141       1.26274420       0.32472538       0.04766644       0.05109164      -0.16163265
O        0.55940858      -0.48984891       0.03093412       0.55675306      -1.71501746      -1.18544500       0.20219479       0.16011434      -0.02932806
H       -1.46887973      -0.29948839      -0.55557025       0.64017403       0.01670734      -0.20812835       0.08026638      -0.06145010       0.09670578
H        0.87856739      -0.47009154       0.96094278      -0.21455830      -0.08351048       0.88409433       0.13537886      -0.14076986      -0.33408734
H       -1.08340913       0.60753828       0.91181609      -0.13669120      -0.18074068      -0.35028600       0.17192804      -0.16585466       0.07700889
H       -0.51106487       1.21044379      -0.66299249       0.08170045       0.01641508       0.11573944      -0.03823617       0.05898420      -0.09325565
H        2.30383222      -0.85332224      -0.62602117      -0.32029664       0.68340200       0.41930020      -0.59919835       0.09788444       0.44458901
7
Lattice="13.0 0.0 0.0 0.0 9.0 0.0 0.0 0.0 9.0" Properties=species:S:1:pos:R:3:momenta:R:3:forces:R:3 EPS_SCF=1e-06 energy=-670.9425327440836 units=gap_units Integrated_spin_density=1.924e-05 opt_dir=/home/tks32/dft_pbe/apr_8_opt_fragments_subset/singlepoint_5_CH3OH time=75.0 free_energy=-670.9425327440836 cutoff=8.0 nneightol=1.2 pbc="T T T"
C       -0.67784974       0.29529553      -0.05875058      -0.60708141       1.26274420       0.32472538       0.02350618       0.03804000      -0.23954286
O        0.55992508      -0.48891241       0.02835301       0.55675306      -1.71501746      -1.18544500       0.23876091       0.15938811       0.11159701
H       -1.46852865      -0.30012943      -0.55519003       0.64017403       0.01670734      -0.20812835       0.08374861      -0.04419461       0.10597849
H        0.87985466      -0.47077889       0.96094850      -0.21455830      -0.08351048       0.88409433       0.11332167      -0.15048259      -0.44928138
H       -1.08212313       0.60631128       0.91162043      -0.13669120      -0.18074068      -0.35028600       0.15281003      -0.14810963       0.11813826
H       -0.51126789       1.21091363      -0.66373191       0.08170045       0.01641508       0.11573944      -0.03839407       0.05111361      -0.08250485
H        2.29998968      -0.85269970      -0.62324941      -0.32029664       0.68340200       0.41930020      -0.57375332       0.09424511       0.43561532
7
Lattice="13.0 0.0 0.0 0.0 9.0 0.0 0.0 0.0 9.0" Properties=species:S:1:pos:R:3:momenta:R:3:forces:R:3 EPS_SCF=1e-06 energy=-670.9480692371251 units=gap_units Integrated_spin_density=1.924e-05 opt_dir=/home/tks32/dft_pbe/apr_8_opt_fragments_subset/singlepoint_5_CH3OH time=75.0 free_energy=-670.9480692371251 cutoff=8.0 nneightol=1.2 pbc="T T T"
C       -0.67721316       0.29587765      -0.05877498      -0.60708141       1.26274420       0.32472538       0.00007893       0.02919428      -0.29066212
O        0.56081545      -0.48773159       0.02597176       0.55675306      -1.71501746      -1.18544500       0.25928813       0.15659769       0.20992999
H       -1.46804794      -0.30083482      -0.55464521       0.64017403       0.01670734      -0.20812835       0.08150043      -0.03085904       0.10923588
H        0.88131010      -0.47169865       0.96024200      -0.21455830      -0.08351048       0.88409433       0.10376180      -0.15783450      -0.52677658
H       -1.08060635       0.60486043       0.91161378      -0.13669120      -0.18074068      -0.35028600       0.13457341      -0.13101257       0.14795543
H       -0.51152996       1.21146031      -0.66459554       0.08170045       0.01641508       0.11573944      -0.03689810       0.04441099      -0.07494401
H        2.29527188      -0.85193330      -0.61981182      -0.32029664       0.68340200       0.41930020      -0.54230460       0.08950316       0.42526140
7
Lattice="13.0 0.0 0.0 0.0 9.0 0.0 0.0 0.0 9.0" Properties=species:S:1:pos:R:3:momenta:R:3:forces:R:3 EPS_SCF=1e-06 energy=-670.9551961514728 units=gap_units Integrated_spin_density=1.924e-05 opt_dir=/home/tks32/dft_pbe/apr_8_opt_fragments_subset/singlepoint_5_CH3OH time=75.0 free_energy=-670.9551961514728 cutoff=8.0 nneightol=1.2 pbc="T T T"
C       -0.67658140       0.29650941      -0.05933879      -0.60708141       1.26274420       0.32472538      -0.02111326       0.02679384      -0.30072303
O        0.56218022      -0.48626928       0.02399885       0.55675306      -1.71501746      -1.18544500       0.25635113       0.15144108       0.24448977
H       -1.46741968      -0.30159199      -0.55390185       0.64017403       0.01670734      -0.20812835       0.07155708      -0.02371625       0.10387815
H        0.88294680      -0.47290425       0.95856307      -0.21455830      -0.08351048       0.88409433       0.11162284      -0.16177086      -0.54836529
H       -1.07885159       0.60317769       0.91188186      -0.13669120      -0.18074068      -0.35028600       0.11858973      -0.11572321       0.15967754
H       -0.51185849       1.21208517      -0.66559155       0.08170045       0.01641508       0.11573944      -0.03329874       0.03965862      -0.07220934
H        2.28958414      -0.85100673      -0.61561159      -0.32029664       0.68340200       0.41930020      -0.50370879       0.08331679       0.41325220
7
Lattice="13.0 0.0 0.0 0.0 9.0 0.0 0.0 0.0 9.0" Properties=species:S:1:pos:R:3:momenta:R:3:forces:R:3 EPS_SCF=1e-06 energy=-670.9641889598804 units=gap_units Integrated_spin_density=1.924e-05 opt_dir=/home/tks32/dft_pbe/apr_8_opt_fragments_subset/singlepoint_5_CH3OH time=75.0 free_energy=-670.9641889598804 cutoff=8.0 nneightol=1.2 pbc="T T T"
C       -0.67600100       0.29719669      -0.06056960      -0.60708141       1.26274420       0.32472538      -0.03851056       0.03251046      -0.25847845
O        0.56410763      -0.48447901       0.02258459       0.55675306      -1.71501746      -1.18544500       0.22349497       0.14396944       0.19839933
H       -1.46663603      -0.30239696      -0.55293179       0.64017403       0.01670734      -0.20812835       0.05240016      -0.02452511       0.08784928
H        0.88482148      -0.47446258       0.95567225      -0.21455830      -0.08351048       0.88409433       0.14074689      -0.16169288      -0.49924004
H       -1.07684411       0.60124815       0.91250431      -0.13669120      -0.18074068      -0.35028600       0.10558473      -0.10283651       0.14791450
H       -0.51225908       1.21279428      -0.66674192       0.08170045       0.01641508       0.11573944      -0.02743231       0.03737417      -0.07539213
H        2.28281112      -0.84990055      -0.61051784      -0.32029664       0.68340200       0.41930020      -0.45628389       0.07520044       0.39894751
7
Lattice="13.0 0.0 0.0 0.0 9.0 0.0 0.0 0.0 9.0" Properties=species:S:1:pos:R:3:momenta:R:3:forces:R:3 EPS_SCF=1e-06 energy=-670.9746408693537 units=gap_units Integrated_spin_density=1.924e-05 opt_dir=/home/tks32/dft_pbe/apr_8_opt_fragments_subset/singlepoint_5_CH3OH time=75.0 free_energy=-670.9746408693537 cutoff=8.0 nneightol=1.2 pbc="T T T"
C       -0.67553123       0.29797070      -0.06251397      -0.60708141       1.26274420       0.32472538      -0.05063198       0.04661320      -0.16089989
O        0.56664713      -0.48229755       0.02173139       0.55675306      -1.71501746      -1.18544500       0.15719922       0.13463076       0.06613713
H       -1.46571076      -0.30326574      -0.55172233       0.64017403       0.01670734      -0.20812835       0.02361255      -0.03366463       0.06054897
H        0.88707787      -0.47646282       0.95140613      -0.21455830      -0.08351048       0.88409433       0.19218741      -0.15779510      -0.37372501
H       -1.07455368       0.59904287       0.91353557      -0.13669120      -0.18074068      -0.35028600       0.09475614      -0.09166801       0.11119150
H       -0.51273387       1.21360356      -0.66809594       0.08170045       0.01641508       0.11573944      -0.01975627       0.03743114      -0.08425326
H        2.27480454      -0.84859101      -0.60434084      -0.32029664       0.68340200       0.41930020      -0.39736707       0.06445264       0.38100056
7
Lattice="13.0 0.0 0.0 0.0 9.0 0.0 0.0 0.0 9.0" Properties=species:S:1:pos:R:3:momenta:R:3:forces:R:3 EPS_SCF=1e-06 energy=-670.985396598225 units=gap_units Integrated_spin_density=1.924e-05 opt_dir=/home/tks32/dft_pbe/apr_8_opt_fragments_subset/singlepoint_5_CH3OH time=75.0 free_energy=-670.985396598225 cutoff=8.0 nneightol=1.2 pbc="T T T"
C       -0.67524856       0.29891140      -0.06503708      -0.60708141       1.26274420       0.32472538      -0.05689131       0.06656657      -0.02252539
O        0.56974910      -0.47963440       0.02112369       0.55675306      -1.71501746      -1.18544500       0.06153464       0.12396825      -0.13103876
H       -1.46470350      -0.30425347      -0.55029729       0.64017403       0.01670734      -0.20812835      -0.01269526      -0.04836755       0.02460579
H        0.89002584      -0.47903019       0.94579464      -0.21455830      -0.08351048       0.88409433       0.26015081      -0.15144478      -0.18822415
H       -1.07192770       0.59651294       0.91496819      -0.13669120      -0.18074068      -0.35028600       0.08240261      -0.07913945       0.05627032
H       -0.51327863       1.21454583      -0.66975145       0.08170045       0.01641508       0.11573944      -0.01196410       0.03835525      -0.09580465
H        2.26538347      -0.84705209      -0.59680070      -0.32029664       0.68340200       0.41930020      -0.32253740       0.05006171       0.35671685
7
Lattice="13.0 0.0 0.0 0.0 9.0 0.0 0.0 0.0 9.0" Properties=species:S:1:pos:R:3:momenta:R:3:forces:R:3 EPS_SCF=1e-06 energy=-670.9954021214595 units=gap_units Integrated_spin_density=1.924e-05 opt_dir=/home/tks32/dft_pbe/apr_8_opt_fragments_subset/singlepoint_5_CH3OH time=75.0 free_energy=-670.9954021214595 cutoff=8.0 nneightol=1.2 pbc="T T T"
C       -0.67524112       0.30016960      -0.06765976      -0.60708141       1.26274420       0.32472538      -0.06003444       0.08509283       0.11102692
O        0.57313662      -0.47638322       0.01988655       0.55675306      -1.71501746      -1.18544500      -0.04262234       0.11134301      -0.31844552
H       -1.46376102      -0.30547082      -0.54875873       0.64017403       0.01670734      -0.20812835      -0.04931015      -0.05986149      -0.01127736
H        0.89421722      -0.48231837       0.93929590      -0.21455830      -0.08351048       0.88409433       0.32466950      -0.14522935      -0.00461105
H       -1.06891391       0.59361057       0.91666694      -0.13669120      -0.18074068      -0.35028600       0.06063994      -0.05868712       0.00399663