7
Lattice="13.0 0.0 0.0 0.0 9.0 0.0 0.0 0.0 9.0" Properties=species:S:1:pos:R:3:momenta:R:3:forces:R:3 EPS_SCF=1e-06 energy=-670.3072350843237 units=gap_units Integrated_spin_density=1.924e-05 opt_dir=/home/tks32/dft_pbe/apr_8_opt_fragments_subset/singlepoint_5_CH3OH time=60.0 free_energy=-670.3072350843237 cutoff=8.0 nneightol=1.2 pbc="T T T"
C       -0.80341604       0.27158620       0.03364619       0.69772973      -1.16108388       0.14066143      -0.56917641      -0.00972220      -0.05920396
O        0.37660881      -0.46709005       0.43532789      -1.17617583       0.53805063      -0.27425561       0.57777912       0.16173657      -0.91002779
H       -1.58794596      -0.42948133      -0.31770080      -0.01383859       0.34809394      -0.09960733       0.26815799       0.09628592       0.04818502
H        1.12917759      -0.01721443      -0.00104716       0.90936987       0.22042510       0.01291219       0.35832086      -0.30819323       0.16017698
H       -1.21365764       0.78322017       0.91400147       0.14811267       0.07004571       0.00558015       0.11817345       0.15981311       0.02420242
H       -0.66467439       1.02892477      -0.77852459      -0.27983847       0.12760609       0.11781358      -0.07538008      -0.33959264       0.38171273
H        2.76390763      -1.16994531      -0.28570300      -0.28535939      -0.14313758       0.09689558      -0.67787492       0.23967247       0.35495460
7
Lattice="13.0 0.0 0.0 0.0 9.0 0.0 0.0 0.0 9.0" Properties=species:S:1:pos:R:3:momenta:R:3:forces:R:3 EPS_SCF=1e-06 energy=-670.3307296710211 units=gap_units Integrated_spin_density=1.924e-05 opt_dir=/home/tks32/dft_pbe/apr_8_opt_fragments_subset/singlepoint_5_CH3OH time=60.0 free_energy=-670.3307296710211 cutoff=8.0 nneightol=1.2 pbc="T T T"
C       -0.80910780       0.27148898       0.03305415       0.69772973      -1.16108388       0.14066143      -0.15390564       0.01686890       0.02644729
O        0.38238660      -0.46547268       0.42622761      -1.17617583       0.53805063      -0.27425561       0.17176762      -0.05901068      -0.68412501
H       -1.58526438      -0.42851847      -0.31721895      -0.01383859       0.34809394      -0.09960733       0.11340093      -0.03386063       0.00343211
H        1.13276080      -0.02029636       0.00055461       0.90936987       0.22042510       0.01291219       0.55086447      -0.06491315      -0.03401525
H       -1.21247591       0.78481830       0.91424349       0.14811267       0.07004571       0.00558015       0.09945336       0.14715203       0.05434511
H       -0.66542819       1.02552884      -0.77470746      -0.27983847       0.12760609       0.11781358      -0.11818293      -0.23412474       0.27839133
H        2.75712888      -1.16754859      -0.28215345      -0.28535939      -0.14313758       0.09689558      -0.66339782       0.22788828       0.35552442
7
Lattice="13.0 0.0 0.0 0.0 9.0 0.0 0.0 0.0 9.0" Properties=species:S:1:pos:R:3:momenta:R:3:forces:R:3 EPS_SCF=1e-06 energy=-670.3593053702907 units=gap_units Integrated_spin_density=1.924e-05 opt_dir=/home/tks32/dft_pbe/apr_8_opt_fragments_subset/singlepoint_5_CH3OH time=60.0 free_energy=-670.3593053702907 cutoff=8.0 nneightol=1.2 pbc="T T T"
C       -0.81597000       0.27159215       0.03282025       0.69772973      -1.16108388       0.14066143       0.34440002       0.00148578       0.15504151
O        0.38952812      -0.46468406       0.41030463      -1.17617583       0.53805063      -0.27425561      -0.21689640      -0.31076359      -0.43000541
H       -1.58156918      -0.42803463      -0.31674649      -0.01383859       0.34809394      -0.09960733      -0.08219246      -0.18246419      -0.04360139
H        1.14221216      -0.02380382       0.00161172       0.90936987       0.22042510       0.01291219       0.66886128       0.21471694      -0.21858483
H       -1.21028821       0.78791989       0.91507558       0.14811267       0.07004571       0.00558015       0.08111564       0.12070185       0.09260554
H       -0.66744245       1.01982617      -0.76812536      -0.27983847       0.12760609       0.11781358      -0.16600949      -0.04259916       0.09048676
H        2.74352955      -1.16281569      -0.27494033      -0.28535939      -0.14313758       0.09689558      -0.62927857       0.19892237       0.35405782
7
Lattice="13.0 0.0 0.0 0.0 9.0 0.0 0.0 0.0 9.0" Properties=species:S:1:pos:R:3:momenta:R:3:forces:R:3 EPS_SCF=1e-06 energy=-670.394417969542 units=gap_units Integrated_spin_density=1.924e-05 opt_dir=/home/tks32/dft_pbe/apr_8_opt_fragments_subset/singlepoint_5_CH3OH time=60.0 free_energy=-670.394417969542 cutoff=8.0 nneightol=1.2 pbc="T T T"
C       -0.81794004       0.27170315       0.03450317       0.69772973      -1.16108388       0.14066143       0.49585123      -0.12274172       0.20578564
O        0.39330667      -0.46776945       0.39072256      -1.17617583       0.53805063      -0.27425561      -0.09767930      -0.36103108      -0.36438154
H       -1.57924726      -0.42982749      -0.31685375      -0.01383859       0.34809394      -0.09960733      -0.14113687      -0.18689077      -0.01993364
H        1.15888677      -0.02433833      -0.00010631       0.90936987       0.22042510       0.01291219       0.40865522       0.28246079      -0.17810278
H       -1.20732868       0.79218538       0.91695540       0.14811267       0.07004571       0.00558015       0.09332825       0.07369288       0.11451576
H       -0.67128264       1.01417353      -0.76109641      -0.27983847       0.12760609       0.11781358      -0.18049531       0.16434308      -0.10744148
H        2.72360518      -1.15612677      -0.26412464      -0.28535939      -0.14313758       0.09689558      -0.57852322       0.15016683       0.34955803
7
Lattice="13.0 0.0 0.0 0.0 9.0 0.0 0.0 0.0 9.0" Properties=species:S:1:pos:R:3:momenta:R:3:forces:R:3 EPS_SCF=1e-06 energy=-670.4337055511331 units=gap_units Integrated_spin_density=1.924e-05 opt_dir=/home/tks32/dft_pbe/apr_8_opt_fragments_subset/singlepoint_5_CH3OH time=60.0 free_energy=-670.4337055511331 cutoff=8.0 nneightol=1.2 pbc="T T T"
C       -0.81323926       0.27020054       0.03870452       0.69772973      -1.16108388       0.14066143       0.24212779      -0.22867531       0.07003217
O        0.39543207      -0.47525992       0.36834134      -1.17617583       0.53805063      -0.27425561       0.39739154      -0.24724393      -0.41997663
H       -1.57900021      -0.43388110      -0.31721054      -0.01383859       0.34809394      -0.09960733      -0.02356033      -0.04058302       0.08978565
H        1.17922931      -0.02113160      -0.00397784       0.90936987       0.22042510       0.01291219      -0.08676009       0.18052310       0.00361991
H       -1.20344660       0.79698645       0.92014234       0.14811267       0.07004571       0.00558015       0.15850113      -0.01536583       0.10507606
H       -0.67709536       1.01123182      -0.75617311      -0.27983847       0.12760609       0.11781358      -0.16828435       0.26391691      -0.19102104
H        2.69812006      -1.14814617      -0.24982670      -0.28535939      -0.14313758       0.09689558      -0.51941570       0.08742808       0.34248389
7
Lattice="13.0 0.0 0.0 0.0 9.0 0.0 0.0 0.0 9.0" Properties=species:S:1:pos:R:3:momenta:R:3:forces:R:3 EPS_SCF=1e-06 energy=-670.4733950193788 units=gap_units Integrated_spin_density=1.924e-05 opt_dir=/home/tks32/dft_pbe/apr_8_opt_fragments_subset/singlepoint_5_CH3OH time=60.0 free_energy=-670.4733950193788 cutoff=8.0 nneightol=1.2 pbc="T T T"
C       -0.80554425       0.26557634       0.04348774       0.69772973      -1.16108388       0.14066143      -0.04930575      -0.11640629      -0.19060697
O        0.40303072      -0.48553886       0.34218930      -1.17617583       0.53805063      -0.27425561       0.61740111      -0.18831056      -0.38585808
H       -1.57911496      -0.43811001      -0.31624702      -0.01383859       0.34809394      -0.09960733       0.13656078       0.08650598       0.21041214
H        1.19629624      -0.01566264      -0.00741043       0.90936987       0.22042510       0.01291219      -0.33873686       0.16393351       0.07945497
H       -1.19768493       0.80108757       0.92451400       0.14811267       0.07004571       0.00558015       0.30850695      -0.18009807       0.04284825
H       -0.68473459       1.01236034      -0.75447523      -0.27983847       0.12760609       0.11781358      -0.15931179       0.18287603      -0.09951827
H        2.66775176      -1.13971272      -0.23205836      -0.28535939      -0.14313758       0.09689558      -0.51511444       0.05149940       0.34326795
7
Lattice="13.0 0.0 0.0 0.0 9.0 0.0 0.0 0.0 9.0" Properties=species:S:1:pos:R:3:momenta:R:3:forces:R:3 EPS_SCF=1e-06 energy=-670.5228949013276 units=gap_units Integrated_spin_density=1.924e-05 opt_dir=/home/tks32/dft_pbe/apr_8_opt_fragments_subset/singlepoint_5_CH3OH time=60.0 free_energy=-670.5228949013276 cutoff=8.0 nneightol=1.2 pbc="T T T"
C       -0.79932849       0.25973889       0.04504885       0.69772973      -1.16108388       0.14066143      -0.04952539       0.09973575      -0.34166489
O        0.41875704      -0.49750064       0.31309802      -1.17617583       0.53805063      -0.27425561       0.28147022      -0.21299450      -0.25733266
H       -1.57725243      -0.44067076      -0.31235095      -0.01383859       0.34809394      -0.09960733       0.21025998       0.07905872       0.25712068
H        1.20678035      -0.00838075      -0.00935600       0.90936987       0.22042510       0.01291219      -0.18600940       0.30548751       0.00400475
H       -1.18805845       0.80218604       0.92906530       0.14811267       0.07004571       0.00558015       0.45483110      -0.35264607      -0.03535061
H       -0.69390319       1.01600852      -0.75437971      -0.27983847       0.12760609       0.11781358      -0.15536889       0.03512981       0.03314816
H        2.63300518      -1.13138129      -0.21112549      -0.28535939      -0.14313758       0.09689558      -0.55565762       0.04622878       0.34007457
7
Lattice="13.0 0.0 0.0 0.0 9.0 0.0 0.0 0.0 9.0" Properties=species:S:1:pos:R:3:momenta:R:3:forces:R:3 EPS_SCF=1e-06 energy=-670.5825011057171 units=gap_units Integrated_spin_density=1.924e-05 opt_dir=/home/tks32/dft_pbe/apr_8_opt_fragments_subset/singlepoint_5_CH3OH time=60.0 free_energy=-670.5825011057171 cutoff=8.0 nneightol=1.2 pbc="T T T"
C       -0.79447923       0.25598533       0.04131480       0.69772973      -1.16108388       0.14066143       0.16786983       0.16330430      -0.25085717
O        0.43714437      -0.51146993       0.28304528      -1.17617583       0.53805063      -0.27425561      -0.17727976      -0.13165054      -0.20126874
H       -1.57241361      -0.44178631      -0.30497710      -0.01383859       0.34809394      -0.09960733       0.18180527      -0.02621359       0.21287170
H        1.21341824       0.00276784      -0.01104678       0.90936987       0.22042510       0.01291219       0.06834248       0.39426831      -0.06437115
H       -1.17255343       0.79787047       0.93262975       0.14811267       0.07004571       0.00558015       0.50996282      -0.43811883      -0.06733888
H       -0.70449187       1.01982028      -0.75379516      -0.27983847       0.12760609       0.11781358      -0.13334505      -0.02177629       0.04465597
H        2.59337552      -1.12318766      -0.18717079      -0.28535939      -0.14313758       0.09689558      -0.61735558       0.06018665       0.32630827
7
Lattice="13.0 0.0 0.0 0.0 9.0 0.0 0.0 0.0 9.0" Properties=species:S:1:pos:R:3:momenta:R:3:forces:R:3 EPS_SCF=1e-06 energy=-670.6632157518486 units=gap_units Integrated_spin_density=1.924e-05 opt_dir=/home/tks32/dft_pbe/apr_8_opt_fragments_subset/singlepoint_5_CH3OH time=60.0 free_energy=-670.6632157518486 cutoff=8.0 nneightol=1.2 pbc="T T T"
C       -0.78662480       0.25523991       0.03305485       0.69772973      -1.16108388       0.14066143       0.30436861      -0.05245131      -0.02066455
O        0.45212300      -0.52769434       0.24963186      -1.17617583       0.53805063      -0.27425561      -0.14997141       0.25507581      -0.32982127
H       -1.56431602      -0.44336754      -0.29380471      -0.01383859       0.34809394      -0.09960733       0.12732790      -0.12167873       0.12772677
H        1.22123295       0.02097692      -0.01389160       0.90936987       0.22042510       0.01291219       0.08689969       0.13395294       0.00300778
H       -1.14792693       0.78562840       0.93493363       0.14811267       0.07004571       0.00558015       0.47848389      -0.40393467      -0.00352665
H       -0.71740028       1.02319780      -0.75240413      -0.27983847       0.12760609       0.11781358      -0.08370021       0.06513684      -0.09868815
H        2.54291209      -1.11398113      -0.15751990      -0.28535939      -0.14313758       0.09689558      -0.76340847       0.12389912       0.32196606
7
Lattice="13.0 0.0 0.0 0.0 9.0 0.0 0.0 0.0 9.0" Properties=species:S:1:pos:R:3:momenta:R:3:forces:R:3 EPS_SCF=1e-06 energy=-670.7806061240027 units=gap_units Integrated_spin_density=1.924e-05 opt_dir=/home/tks32/dft_pbe/apr_8_opt_fragments_subset/singlepoint_5_CH3OH time=60.0 free_energy=-670.7806061240027 cutoff=8.0 nneightol=1.2 pbc="T T T"
C       -0.77214049       0.25334655       0.02441354       0.69772973      -1.16108388       0.14066143       0.16916946      -0.24367438      -0.01453493
O        0.46366713      -0.53815958       0.20925577      -1.17617583       0.53805063      -0.27425561       0.25062970       0.61357631      -0.44826205
H       -1.55348775      -0.44761311      -0.27992023      -0.01383859       0.34809394      -0.09960733       0.11448686      -0.14534274       0.07942587
H        1.23089095       0.04197253      -0.01664489       0.90936987       0.22042510       0.01291219       0.10078099      -0.30918450       0.07328574
H       -1.11298716       0.76460383       0.93713937       0.14811267       0.07004571       0.00558015       0.42544037      -0.30826459       0.15190627
H       -0.73203623       1.02797906      -0.75319782      -0.27983847       0.12760609       0.11781358      -0.02950451       0.10657651      -0.17947270
H        2.47609354      -1.10212927      -0.12104574      -0.28535939      -0.14313758       0.09689558      -1.03100287       0.28631339       0.33765180
7
Lattice="13.0 0.0 0.0 0.0 9.0 0.0 0.0 0.0 9.0" Properties=species:S:1:pos:R:3:momenta:R:3:forces:R:3 EPS_SCF=1e-06 energy=-670.9526619938308 units=gap_units Integrated_spin_density=1.924e-05 opt_dir=/home/tks32/dft_pbe/apr_8_opt_fragments_subset/singlepoint_5_CH3OH time=60.0 free_energy=-670.9526619938308 cutoff=8.0 nneightol=1.2 pbc="T T T"
C       -0.75356544       0.24541267       0.01547854       0.69772973      -1.16108388       0.14066143      -0.18230502       0.14676060      -0.23960480
O        0.48134925      -0.53329568       0.15805571      -1.17617583       0.53805063      -0.27425561       0.20844514       0.26533592      -0.30615934
H       -1.53989905      -0.45543728      -0.26417046      -0.01383859       0.34809394      -0.09960733      -0.00725053      -0.19396865       0.04790413
H        1.24297792       0.05512089      -0.01755552       0.90936987       0.22042510       0.01291219       0.50419285      -0.20276246      -0.02126453
H       -1.06774809       0.73608309       0.94310275       0.14811267       0.07004571       0.00558015       0.29606656      -0.21428585       0.26331696
H       -0.74729105       1.03537140      -0.75844521      -0.27983847       0.12760609       0.11781358       0.00761183      -0.07326125      -0.03133661
H        2.38417645      -1.08325507      -0.07646582      -0.28535939      -0.14313758       0.09689558      -0.82676082       0.27218169       0.28714419
7
Lattice="13.0 0.0 0.0 0.0 9.0 0.0 0.0 0.0 9.0" Properties=species:S:1:pos:R:3:momenta:R:3:forces:R:3 EPS_SCF=1e-06 energy=-671.0322771385769 units=gap_units Integrated_spin_density=1.924e-05 opt_dir=/home/tks32/dft_pbe/apr_8_opt_fragments_subset/singlepoint_5_CH3OH time=60.0 free_energy=-671.0322771385769 cutoff=8.0 nneightol=1.2 pbc="T T T"
C       -0.74103715       0.24229933      -0.00117923       0.69772973      -1.16108388       0.14066143      -0.42680328       0.40583128       0.02398053
O        0.50568312      -0.51984579       0.09725560      -1.17617583       0.53805063      -0.27425561      -0.34505417      -0.19941061      -0.13515853
H       -1.52663735      -0.46950934      -0.24697069      -0.01383859       0.34809394      -0.09960733      -0.23913863      -0.16587562      -0.04699304
H        1.27136090       0.06159452      -0.01915075       0.90936987       0.22042510       0.01291219       0.60079347       0.22469994      -0.08400938
H       -1.01319666       0.70079387       0.95757915       0.14811267       0.07004571       0.00558015      -0.06016088       0.00431326       0.20088545
H       -0.76219591       1.04033427      -0.76467516      -0.27983847       0.12760609       0.11781358      -0.00314857      -0.05201629      -0.05931455
H        2.26602307      -1.05566685      -0.02285892      -0.28535939      -0.14313758       0.09689558       0.47351205      -0.21754195       0.10060953
7
Lattice="13.0 0.0 0.0 0.0 9.0 0.0 0.0 0.0 9.0" Properties=species:S:1:pos:R:3:momenta:R:3:forces:R:3 EPS_SCF=1e-06 energy=-671.0385902843316 units=gap_units Integrated_spin_density=1.924e-05 opt_dir=/home/tks32/dft_pbe/apr_8_opt_fragments_subset/singlepoint_5_CH3OH time=60.0 free_energy=-671.0385902843316 cutoff=8.0 nneightol=1.2 pbc="T T T"
C       -0.74332438       0.24447417      -0.00105072       0.69772973      -1.16108388       0.14066143      -0.36204582       0.26463073       0.03053009
O        0.50383398      -0.52091442       0.09653129      -1.17617583       0.53805063      -0.27425561      -0.17517722      -0.04447992      -0.16427369
H       -1.52791889      -0.47039827      -0.24722253      -0.01383859       0.34809394      -0.09960733      -0.20853522      -0.12034931      -0.03728207
H        1.27458053       0.06279868      -0.01960095       0.90936987       0.22042510       0.01291219       0.40218063       0.08207310      -0.05652561
H       -1.01351906       0.70081698       0.95865569       0.14811267       0.07004571       0.00558015      -0.06580945       0.02206280       0.20794925
H       -0.76221278       1.04005552      -0.76499303      -0.27983847       0.12760609       0.11781358      -0.01460608      -0.01057014      -0.08334430
H        2.26856060      -1.05683265      -0.02231976      -0.28535939      -0.14313758       0.09689558       0.42399316      -0.19336726       0.10294633
7
Lattice="13.0 0.0 0.0 0.0 9.0 0.0 0.0 0.0 9.0" Properties=species:S:1:pos:R:3:momenta:R:3:forces:R:3 EPS_SCF=1e-06 energy=-671.045658729762 units=gap_units Integrated_spin_density=1.924e-05 opt_dir=/home/tks32/dft_pbe/apr_8_opt_fragments_subset/singlepoint_5_CH3OH time=60.0 free_energy=-671.045658729762 cutoff=8.0 nneightol=1.2 pbc="T T T"
C       -0.74758013       0.24803756      -0.00074978       0.69772973      -1.16108388       0.14066143      -0.24012912       0.04814734       0.03930134
O        0.50110661      -0.52214614       0.09488244      -1.17617583       0.53805063      -0.27425561       0.06528219       0.17586633      -0.20330174
H       -1.53033787      -0.47192869      -0.24767544      -0.01383859       0.34809394      -0.09960733      -0.15484687      -0.04708290      -0.02026909
H        1.27991903       0.06438053      -0.02034919       0.90936987       0.22042510       0.01291219       0.10257723      -0.11900360      -0.01794808
H       -1.01420862       0.70097169       0.96088662       0.14811267       0.07004571       0.00558015      -0.07075874       0.04493854       0.20676443
H       -0.76231661       1.03974049      -0.76578492      -0.27983847       0.12760609       0.11781358      -0.03634106       0.04876259      -0.11155032
H        2.27341759      -1.05905541      -0.02120973      -0.28535939      -0.14313758       0.09689558       0.33421638      -0.15162829       0.10700346
7
Lattice="13.0 0.0 0.0 0.0 9.0 0.0 0.0 0.0 9.0" Properties=species:S:1:pos:R:3:momenta:R:3:forces:R:3 EPS_SCF=1e-06 energy=-671.0503831069892 units=gap_units Integrated_spin_density=1.924e-05 opt_dir=/home/tks32/dft_pbe/apr_8_opt_fragments_subset/singlepoint_5_CH3OH time=60.0 free_energy=-671.0503831069892 cutoff=8.0 nneightol=1.2 pbc="T T T"
C       -0.75310960       0.25158534      -0.00020081       0.69772973      -1.16108388       0.14066143      -0.07638687      -0.12789009       0.04111037
O        0.49911395      -0.52201016       0.09195979      -1.17617583       0.53805063      -0.27425561       0.22031880       0.31881281      -0.22307195
H       -1.53361073      -0.47363926      -0.24822650      -0.01383859       0.34809394      -0.09960733      -0.09038558       0.02344938       0.00021130
H        1.28544957       0.06496205      -0.02114961       0.90936987       0.22042510       0.01291219      -0.14454205      -0.24611123       0.00710542
H       -1.01532995       0.70142893       0.96435763       0.14811267       0.07004571       0.00558015      -0.06425535       0.05127794       0.17153117
H       -0.76266723       1.03980204      -0.76728702      -0.27983847       0.12760609       0.11781358      -0.06576155       0.08406131      -0.10862032
H        2.28015398      -1.06212890      -0.01945349      -0.28535939      -0.14313758       0.09689558       0.22101260      -0.10360011       0.11173400
7
Lattice="13.0 0.0 0.0 0.0 9.0 0.0 0.0 0.0 9.0" Properties=species:S:1:pos:R:3:momenta:R:3:forces:R:3 EPS_SCF=1e-06 energy=-671.0541425571025 units=gap_units Integrated_spin_density=1.924e-05 opt_dir=/home/tks32/dft_pbe/apr_8_opt_fragments_subset/singlepoint_5_CH3OH time=60.0 free_energy=-671.0541425571025 cutoff=8.0 nneightol=1.2 pbc="T T T"
C       -0.75864700       0.25383927       0.00059513       0.69772973      -1.16108388       0.14066143       0.09384469      -0.17369368       0.02924937
O        0.49893829      -0.51954684       0.08769146      -1.17617583       0.53805063      -0.27425561       0.19110274       0.28876719      -0.20695600
H       -1.53721999      -0.47500659      -0.24872090      -0.01383859       0.34809394      -0.09960733      -0.02647307       0.06702010       0.02056102
H        1.28936573       0.06367830      -0.02181782       0.90936987       0.22042510       0.01291219      -0.22854268      -0.21382722       0.00417159
H       -1.01681095       0.70221696       0.96874104       0.14811267       0.07004571       0.00558015      -0.03952852       0.02690437       0.08974819
H       -0.76346565       1.04047467      -0.76943647      -0.27983847       0.12760609       0.11781358      -0.09659296       0.06553388      -0.05272677
H        2.28783956      -1.06565575      -0.01705245      -0.28535939      -0.14313758       0.09689558       0.10618980      -0.06070462       0.11595259
7
Lattice="13.0 0.0 0.0 0.0 9.0 0.0 0.0 0.0 9.0" Properties=species:S:1:pos:R:3:momenta:R:3:forces:R:3 EPS_SCF=1e-06 energy=-671.0566648147586 units=gap_units Integrated_spin_density=1.924e-05 opt_dir=/home/tks32/dft_pbe/apr_8_opt_fragments_subset/singlepoint_5_CH3OH time=60.0 free_energy=-671.0566648147586 cutoff=8.0 nneightol=1.2 pbc="T T T"
C       -0.76290791       0.25453010       0.00153673       0.69772973      -1.16108388       0.14066143       0.22539684      -0.09472452       0.00689394
O        0.50025199      -0.51510588       0.08225608      -1.17617583       0.53805063      -0.27425561       0.00334907       0.10046098      -0.16179971
H       -1.54067220      -0.47572103      -0.24900751      -0.01383859       0.34809394      -0.09960733       0.03481062       0.08333338       0.03966394
H        1.29113014       0.06087612      -0.02238708       0.90936987       0.22042510       0.01291219      -0.14822013      -0.04019679      -0.02186125
H       -1.01844829       0.70313340       0.97337732       0.14811267       0.07004571       0.00558015       0.00169996      -0.02315869      -0.02471384
H       -0.76492814       1.04158474      -0.77177705      -0.27983847       0.12760609       0.11781358      -0.12044424       0.00160355       0.04288929
H        2.29557441      -1.06929743      -0.01399849      -0.28535939      -0.14313758       0.09689558       0.00340788      -0.02731792       0.11892762
7
Lattice="13.0 0.0 0.0 0.0 9.0 0.0 0.0 0.0 9.0" Properties=species:S:1:pos:R:3:momenta:R:3:forces:R:3 EPS_SCF=1e-06 energy=-671.0565066845808 units=gap_units Integrated_spin_density=1.924e-05 opt_dir=/home/tks32/dft_pbe/apr_8_opt_fragments_subset/singlepoint_5_CH3OH time=60.0 free_energy=-671.0565066845808 cutoff=8.0 nneightol=1.2 pbc="T T T"
C       -0.76472293       0.25430301       0.00244596       0.69772973      -1.16108388       0.14066143       0.26463795       0.02372929      -0.01540009
O        0.50146433      -0.51020878       0.07591433      -1.17617583       0.53805063      -0.27425561      -0.20286842      -0.13546905      -0.11139848
H       -1.54346724      -0.47561727      -0.24891003      -0.01383859       0.34809394      -0.09960733       0.09653764       0.09000474       0.05778416
H        1.29138989       0.05799396      -0.02309531       0.90936987       0.22042510       0.01291219      -0.00154820       0.16638274      -0.05148986
H       -1.01990666       0.70375067       0.97732850       0.14811267       0.07004571       0.00558015       0.05076196      -0.07679911      -0.13382272
H       -0.76732371       1.04259818      -0.77349924      -0.27983847       0.12760609       0.11781358      -0.12721058      -0.06573880       0.13428656
H        2.30256632      -1.07281975      -0.01018421      -0.28535939      -0.14313758       0.09689558      -0.08031036      -0.00210981       0.12004042
7
Lattice="13.0 0.0 0.0 0.0 9.0 0.0 0.0 0.0 9.0" Properties=species:S:1:pos:R:3:momenta:R:3:forces:R:3 EPS_SCF=1e-06 energy=-671.0568707792035 units=gap_units Integrated_spin_density=1.924e-05 opt_dir=/home/tks32/dft_pbe/apr_8_opt_fragments_subset/singlepoint_5_CH3OH time=60.0 free_energy=-671.0568707792035 cutoff=8.0 nneightol=1.2 pbc="T T T"
C       -0.76436838       0.25433480       0.00242532       0.69772973      -1.16108388       0.14066143       0.24952911       0.01512439      -0.01424533
O        0.50119254      -0.51039027       0.07576509      -1.17617583       0.53805063      -0.27425561      -0.18016305      -0.12217403      -0.11380761
H       -1.54333791      -0.47549668      -0.24883261      -0.01383859       0.34809394      -0.09960733       0.09649633       0.09108464       0.05758715
H        1.29138781       0.05821687      -0.02316429       0.90936987       0.22042510       0.01291219      -0.01356129       0.15177605      -0.04927100
H       -1.01983865       0.70364778       0.97714921       0.14811267       0.07004571       0.00558015       0.05038068      -0.07376815      -0.12763343
H       -0.76749414       1.04251011      -0.77331934      -0.27983847       0.12760609       0.11781358      -0.12444522      -0.05964463       0.12754682
H        2.30245872      -1.07282258      -0.01002338      -0.28535939      -0.14313758       0.09689558      -0.07823656      -0.00239828       0.11982340
7
Lattice="13.0 0.0 0.0 0.0 9.0 0.0 0.0 0.0 9.0" Properties=species:S:1:pos:R:3:momenta:R:3:forces:R:3 EPS_SCF=1e-06 energy=-671.0575208076684 units=gap_units Integrated_spin_density=1.924e-05 opt_dir=/home/tks32/dft_pbe/apr_8_opt_fragments_subset/singlepoint_5_CH3OH time=60.0 free_energy=-671.0575208076684 cutoff=8.0 nneightol=1.2 pbc="T T T"
C       -0.76367960       0.25438582       0.00238565       0.69772973      -1.16108388       0.14066143       0.22059012      -0.00061438      -0.01209166
O        0.50068101      -0.51073462       0.07546216      -1.17617583       0.53805063      -0.27425561      -0.13747233      -0.09743312      -0.11827525
H       -1.54307854      -0.47525321      -0.24867762      -0.01383859       0.34809394      -0.09960733       0.09599352       0.09266764       0.05707195
H        1.29136585       0.05864235      -0.02329938       0.90936987       0.22042510       0.01291219      -0.03556930       0.12445010      -0.04515145
H       -1.01970280       0.70344589       0.97679876       0.14811267       0.07004571       0.00558015       0.04963345      -0.06796483      -0.11559010
H       -0.76783189       1.04234248      -0.77296845      -0.27983847       0.12760609       0.11781358      -0.11907733      -0.04807259       0.11464412
H        2.30224598      -1.07282867      -0.00970112      -0.28535939      -0.14313758       0.09689558      -0.07409814      -0.00303282       0.11939240
7
Lattice="13.0 0.0 0.0 0.0 9.0 0.0 0.0 0.0 9.0" Properties=species:S:1:pos:R:3:momenta:R:3:forces:R:3 EPS_SCF=1e-06 energy=-671.0583307501793 units=gap_units Integrated_spin_density=1.924e-05 opt_dir=/home/tks32/dft_pbe/apr_8_opt_fragments_subset/singlepoint_5_CH3OH time=60.0 free_energy=-671.0583307501793 cutoff=8.0 nneightol=1.2 pbc="T T T"
C       -0.76269637       0.25443072       0.00233003       0.69772973      -1.16108388       0.14066143       0.18037857      -0.02054387      -0.00926257
O        0.49999421      -0.51120502       0.07499471      -1.17617583       0.53805063      -0.27425561      -0.08022771      -0.06490605      -0.12410917
H       -1.54268701      -0.47488146      -0.24844412      -0.01383859       0.34809394      -0.09960733       0.09417592       0.09358068       0.05599194
H        1.29128750       0.05923026      -0.02349532       0.90936987       0.22042510       0.01291219      -0.06356054       0.08815360      -0.03975689
H       -1.01949879       0.70315224       0.97629296       0.14811267       0.07004571       0.00558015       0.04855500      -0.05989395      -0.09836637