7
Lattice="13.0 0.0 0.0 0.0 9.0 0.0 0.0 0.0 9.0" Properties=species:S:1:pos:R:3:momenta:R:3:forces:R:3 EPS_SCF=1e-06 energy=-671.131136765615 units=gap_units Integrated_spin_density=1.924e-05 opt_dir=/home/tks32/dft_pbe/apr_8_opt_fragments_subset/singlepoint_5_CH3OH time=120.0 free_energy=-671.131136765615 cutoff=8.0 nneightol=1.2 pbc="T T T"
C       -0.94037651       0.76756378      -0.02908970      -1.35563138       2.10100636      -0.37439992       1.15772322       1.70537927      -0.22174868
O        0.98768702      -1.13003417       0.30929768       0.46695749      -2.72309779       0.31764371       1.94733929       4.81564404      -0.75441709
H       -1.71943405       0.05004280      -0.12347824       0.05203570       0.04063609      -0.00792800      -0.34468717      -0.84125645      -0.09722469
H        1.30281852      -1.87798447      -0.13899015       0.36063131      -0.36604389      -0.30501383       0.45181048      -1.04107171      -0.84676971
H       -0.63737625       1.13334523       0.96987505      -0.46979486      -0.26600175       0.03601765      -0.31199726      -0.11078501      -0.59787353
H       -0.57227294       1.33292106      -0.91953787       0.54913550       0.28555437       0.24535497      -0.50206901      -0.60066247       0.93601972
H        1.57895422      -0.27585423      -0.06807677       0.39666625       0.92794661       0.08832542      -2.39811955      -3.92724767       1.58201398
7
Lattice="13.0 0.0 0.0 0.0 9.0 0.0 0.0 0.0 9.0" Properties=species:S:1:pos:R:3:momenta:R:3:forces:R:3 EPS_SCF=1e-06 energy=-671.5281633967112 units=gap_units Integrated_spin_density=1.924e-05 opt_dir=/home/tks32/dft_pbe/apr_8_opt_fragments_subset/singlepoint_5_CH3OH time=120.0 free_energy=-671.5281633967112 cutoff=8.0 nneightol=1.2 pbc="T T T"
C       -0.92879928       0.78461757      -0.03130719      -1.35563138       2.10100636      -0.37439992      -0.25854024       0.17479226       0.01847271
O        1.00716041      -1.08187773       0.30175351       0.46695749      -2.72309779       0.31764371       1.19331930       0.65353377      -1.07008927
H       -1.72288092       0.04163024      -0.12445049       0.05203570       0.04063609      -0.00792800       0.52888357      -0.08873789      -0.01000114
H        1.30733662      -1.88839519      -0.14745785       0.36063131      -0.36604389      -0.30501383      -0.33862794       1.07202832       0.38562971
H       -0.64049622       1.13223738       0.96389631      -0.46979486      -0.26600175       0.03601765      -0.11717172       0.12482830      -0.20426996
H       -0.57729363       1.32691444      -0.91017767       0.54913550       0.28555437       0.24535497      -0.12595005      -0.08527711       0.24668785
H        1.55497302      -0.31512671      -0.05225663       0.39666625       0.92794661       0.08832542      -0.88191292      -1.85116765       0.63357008
7
Lattice="13.0 0.0 0.0 0.0 9.0 0.0 0.0 0.0 9.0" Properties=species:S:1:pos:R:3:momenta:R:3:forces:R:3 EPS_SCF=1e-06 energy=-671.2222428061176 units=gap_units Integrated_spin_density=1.924e-05 opt_dir=/home/tks32/dft_pbe/apr_8_opt_fragments_subset/singlepoint_5_CH3OH time=120.0 free_energy=-671.2222428061176 cutoff=8.0 nneightol=1.2 pbc="T T T"
C       -0.92161478       0.80215309      -0.03307178      -1.35563138       2.10100636      -0.37439992      -1.37562832      -1.17145697       0.35853753
O        1.03961798      -1.03035953       0.28157417       0.46695749      -2.72309779       0.31764371      -4.06132929      -7.69523625       1.93831046
H       -1.71936540       0.03294859      -0.12545065       0.05203570       0.04063609      -0.00792800       1.11332450       0.45144862       0.04866577
H        1.30716581      -1.88435098      -0.15025355       0.36063131      -0.36604389      -0.30501383      -0.56050395       2.11560983       0.87349184
H       -0.64477032       1.13280224       0.95595951      -0.46979486      -0.26600175       0.03601765       0.06244871       0.35222321       0.23196081
H       -0.58338821       1.32044144      -0.89866679       0.54913550       0.28555437       0.24535497       0.28135241       0.46561947      -0.55898384
H        1.52235493      -0.37363484      -0.03009090       0.39666625       0.92794661       0.08832542       4.54033594       5.48179209      -2.89198259
7
Lattice="13.0 0.0 0.0 0.0 9.0 0.0 0.0 0.0 9.0" Properties=species:S:1:pos:R:3:momenta:R:3:forces:R:3 EPS_SCF=1e-06 energy=-671.496536068257 units=gap_units Integrated_spin_density=1.924e-05 opt_dir=/home/tks32/dft_pbe/apr_8_opt_fragments_subset/singlepoint_5_CH3OH time=120.0 free_energy=-671.496536068257 cutoff=8.0 nneightol=1.2 pbc="T T T"
C       -0.92505385       0.79922445      -0.03217544      -1.35563138       2.10100636      -0.37439992      -1.07346311      -0.83708742       0.25962667
O        1.02946466      -1.04959762       0.28641994       0.46695749      -2.72309779       0.31764371      -1.72760372      -3.66590239       0.64564565
H       -1.71658209       0.03407721      -0.12532898       0.05203570       0.04063609      -0.00792800       0.91760675       0.28390025       0.03430709
H        1.30576455      -1.87906196      -0.14806982       0.36063131      -0.36604389      -0.30501383      -0.39349694       1.39685702       0.54644543
H       -0.64461420       1.13368280       0.95653941      -0.46979486      -0.26600175       0.03601765       0.03443912       0.30044466       0.16707168
H       -0.58268483       1.32160548      -0.90006425       0.54913550       0.28555437       0.24535497       0.19896674       0.34173250      -0.38957590
H        1.53370577      -0.35993036      -0.03732086       0.39666625       0.92794661       0.08832542       2.04355116       2.18005538      -1.26352061
7
Lattice="13.0 0.0 0.0 0.0 9.0 0.0 0.0 0.0 9.0" Properties=species:S:1:pos:R:3:momenta:R:3:forces:R:3 EPS_SCF=1e-06 energy=-671.6004097014086 units=gap_units Integrated_spin_density=1.924e-05 opt_dir=/home/tks32/dft_pbe/apr_8_opt_fragments_subset/singlepoint_5_CH3OH time=120.0 free_energy=-671.6004097014086 cutoff=8.0 nneightol=1.2 pbc="T T T"
C       -0.93140385       0.79405054      -0.03058152      -1.35563138       2.10100636      -0.37439992      -0.50263609      -0.22513803       0.09915525
O        1.01508841      -1.07802726       0.29273880       0.46695749      -2.72309779       0.31764371       0.11666199       0.32403469      -0.15690920
H       -1.71129484       0.03595378      -0.12511546       0.05203570       0.04063609      -0.00792800       0.55061980      -0.03428662       0.00537035
H        1.30331029      -1.87006644      -0.14444759       0.36063131      -0.36604389      -0.30501383      -0.07081425       0.22735674      -0.03187756
H       -0.64436927       1.13538628       0.95756790      -0.46979486      -0.26600175       0.03601765      -0.02380993       0.21039286       0.05190792
H       -0.58144850       1.32368929      -0.90250319       0.54913550       0.28555437       0.24535497       0.05165631       0.12849382      -0.09988106
H        1.55011777      -0.34098619      -0.04765893       0.39666625       0.92794661       0.08832542      -0.12167782      -0.63085346       0.13223430
7
Lattice="13.0 0.0 0.0 0.0 9.0 0.0 0.0 0.0 9.0" Properties=species:S:1:pos:R:3:momenta:R:3:forces:R:3 EPS_SCF=1e-06 energy=-671.6012206282023 units=gap_units Integrated_spin_density=1.924e-05 opt_dir=/home/tks32/dft_pbe/apr_8_opt_fragments_subset/singlepoint_5_CH3OH time=120.0 free_energy=-671.6012206282023 cutoff=8.0 nneightol=1.2 pbc="T T T"
C       -0.93171800       0.79390983      -0.03051955      -1.35563138       2.10100636      -0.37439992      -0.47976357      -0.20066083       0.09505928
O        1.01516133      -1.07782474       0.29264073       0.46695749      -2.72309779       0.31764371       0.10222401       0.30315702      -0.14825715
H       -1.71095071       0.03593235      -0.12511211       0.05203570       0.04063609      -0.00792800       0.53531088      -0.04821046       0.00419703
H        1.30326604      -1.86992434      -0.14446751       0.36063131      -0.36604389      -0.30501383      -0.07108920       0.22587232      -0.03144453
H       -0.64438415       1.13551777       0.95760034      -0.46979486      -0.26600175       0.03601765      -0.02640349       0.20704593       0.04759167
H       -0.58141622       1.32376960      -0.90256562       0.54913550       0.28555437       0.24535497       0.04716598       0.12079909      -0.09012037
H        1.55004172      -0.34138048      -0.04757628       0.39666625       0.92794661       0.08832542      -0.10744461      -0.60800308       0.12297407
7
Lattice="13.0 0.0 0.0 0.0 9.0 0.0 0.0 0.0 9.0" Properties=species:S:1:pos:R:3:momenta:R:3:forces:R:3 EPS_SCF=1e-06 energy=-671.6027088115745 units=gap_units Integrated_spin_density=1.924e-05 opt_dir=/home/tks32/dft_pbe/apr_8_opt_fragments_subset/singlepoint_5_CH3OH time=120.0 free_energy=-671.6027088115745 cutoff=8.0 nneightol=1.2 pbc="T T T"
C       -0.93233188       0.79364469      -0.03039816      -1.35563138       2.10100636      -0.37439992      -0.43539201      -0.15326037       0.08721842
O        1.01529751      -1.07743322       0.29245014       0.46695749      -2.72309779       0.31764371       0.07410926       0.26284010      -0.13135288
H       -1.71027150       0.03587979      -0.12510619       0.05203570       0.04063609      -0.00792800       0.50558150      -0.07525484       0.00191672
H        1.30317713      -1.86964055      -0.14450715       0.36063131      -0.36604389      -0.30501383      -0.07157368       0.22260821      -0.03072334
H       -0.64441576       1.13577903       0.95766239      -0.46979486      -0.26600175       0.03601765      -0.03142245       0.20055611       0.03927951
H       -0.58135461       1.32392526      -0.90268401       0.54913550       0.28555437       0.24535497       0.03851732       0.10595325      -0.07134687
H        1.54989911      -0.34215499      -0.04741702       0.39666625       0.92794661       0.08832542      -0.07981994      -0.56344247       0.10500844
7
Lattice="13.0 0.0 0.0 0.0 9.0 0.0 0.0 0.0 9.0" Properties=species:S:1:pos:R:3:momenta:R:3:forces:R:3 EPS_SCF=1e-06 energy=-671.6046386757359 units=gap_units Integrated_spin_density=1.924e-05 opt_dir=/home/tks32/dft_pbe/apr_8_opt_fragments_subset/singlepoint_5_CH3OH time=120.0 free_energy=-671.6046386757359 cutoff=8.0 nneightol=1.2 pbc="T T T"
C       -0.93321708       0.79328894      -0.03022226      -1.35563138       2.10100636      -0.37439992      -0.37232602      -0.08612112       0.07631836
O        1.01547670      -1.07688000       0.29217823       0.46695749      -2.72309779       0.31764371       0.03388857       0.20604193      -0.10701884
H       -1.70927386       0.03577497      -0.12509940       0.05203570       0.04063609      -0.00792800       0.46325638      -0.11375416      -0.00132791
H        1.30304243      -1.86921502      -0.14456630       0.36063131      -0.36604389      -0.30501383      -0.07213510       0.21693449      -0.03001430
H       -0.64446823       1.13616742       0.95774825      -0.46979486      -0.26600175       0.03601765      -0.03852403       0.19133757       0.02762383
H       -0.58126972       1.32414632      -0.90284508       0.54913550       0.28555437       0.24535497       0.02638398       0.08505047      -0.04506166
H        1.54970977      -0.34328263      -0.04719344       0.39666625       0.92794661       0.08832542      -0.04054378      -0.49948918       0.07948052
7
Lattice="13.0 0.0 0.0 0.0 9.0 0.0 0.0 0.0 9.0" Properties=species:S:1:pos:R:3:momenta:R:3:forces:R:3 EPS_SCF=1e-06 energy=-671.606731086121 units=gap_units Integrated_spin_density=1.924e-05 opt_dir=/home/tks32/dft_pbe/apr_8_opt_fragments_subset/singlepoint_5_CH3OH time=120.0 free_energy=-671.606731086121 cutoff=8.0 nneightol=1.2 pbc="T T T"
C       -0.93433173       0.79289523      -0.02999878      -1.35563138       2.10100636      -0.37439992      -0.29487933      -0.00415497       0.06333585
O        1.01566692      -1.07620615       0.29184212       0.46695749      -2.72309779       0.31764371      -0.01597362       0.13733012      -0.07655129
H       -1.70798037       0.03558350      -0.12509442       0.05203570       0.04063609      -0.00792800       0.41116774      -0.16109174      -0.00530169
H        1.30285959      -1.86864679      -0.14464516       0.36063131      -0.36604389      -0.30501383      -0.07257987       0.20786943      -0.02977143
H       -0.64454835       1.13668036       0.95784911      -0.46979486      -0.26600175       0.03601765      -0.04718330       0.18002215       0.01362014
H       -0.58117079       1.32441790      -0.90302852       0.54913550       0.28555437       0.24535497       0.01178634       0.05973202      -0.01350272
H        1.54950474      -0.34472405      -0.04692434       0.39666625       0.92794661       0.08832542       0.00766203      -0.41970701       0.04817114
7
Lattice="13.0 0.0 0.0 0.0 9.0 0.0 0.0 0.0 9.0" Properties=species:S:1:pos:R:3:momenta:R:3:forces:R:3 EPS_SCF=1e-06 energy=-671.6087380255698 units=gap_units Integrated_spin_density=1.924e-05 opt_dir=/home/tks32/dft_pbe/apr_8_opt_fragments_subset/singlepoint_5_CH3OH time=120.0 free_energy=-671.6087380255698 cutoff=8.0 nneightol=1.2 pbc="T T T"
C       -0.93561973       0.79253687      -0.02973647      -1.35563138       2.10100636      -0.37439992      -0.20905939       0.08578410       0.04949065
O        1.01582268      -1.07546703       0.29146568       0.46695749      -2.72309779       0.31764371      -0.07193671       0.06305020      -0.04184122
H       -1.70641909       0.03525557      -0.12509506       0.05203570       0.04063609      -0.00792800       0.35330469      -0.21352922      -0.00965086
H        1.30262494      -1.86793461      -0.14474490       0.36063131      -0.36604389      -0.30501383      -0.07267065       0.19410482      -0.03058329
H       -0.64466603       1.13731590       0.95795304      -0.46979486      -0.26600175       0.03601765      -0.05667449       0.16748192      -0.00136388
H       -0.58107037       1.32472002      -0.90320666       0.54913550       0.28555437       0.24535497      -0.00388867       0.03220619       0.02034752
H        1.54932761      -0.34642672      -0.04663563       0.39666625       0.92794661       0.08832542       0.06092523      -0.32909801       0.01360108
7
Lattice="13.0 0.0 0.0 0.0 9.0 0.0 0.0 0.0 9.0" Properties=species:S:1:pos:R:3:momenta:R:3:forces:R:3 EPS_SCF=1e-06 energy=-671.6105184236209 units=gap_units Integrated_spin_density=1.924e-05 opt_dir=/home/tks32/dft_pbe/apr_8_opt_fragments_subset/singlepoint_5_CH3OH time=120.0 free_energy=-671.6105184236209 cutoff=8.0 nneightol=1.2 pbc="T T T"
C       -0.93700732       0.79230807      -0.02944632      -1.35563138       2.10100636      -0.37439992      -0.12283069       0.17462111       0.03619416
O        1.01588428      -1.07473295       0.29108117       0.46695749      -2.72309779       0.31764371      -0.12909532      -0.00853304      -0.00559272
H       -1.70462795       0.03472716      -0.12510618       0.05203570       0.04063609      -0.00792800       0.29501826      -0.26598176      -0.01387365
H        1.30233435      -1.86708159      -0.14486807       0.36063131      -0.36604389      -0.30501383      -0.07217318       0.17420972      -0.03309172
H       -0.64483386       1.13807085       0.95804509      -0.46979486      -0.26600175       0.03601765      -0.06604696       0.15486474      -0.01555854
H       -0.58098425       1.32502711      -0.90334476       0.54913550       0.28555437       0.24535497      -0.01886795       0.00527908       0.05275314
H        1.54923476      -0.34831866      -0.04636093       0.39666625       0.92794661       0.08832542       0.11399585      -0.23445986      -0.02083067
7
Lattice="13.0 0.0 0.0 0.0 9.0 0.0 0.0 0.0 9.0" Properties=species:S:1:pos:R:3:momenta:R:3:forces:R:3 EPS_SCF=1e-06 energy=-671.6120869900645 units=gap_units Integrated_spin_density=1.924e-05 opt_dir=/home/tks32/dft_pbe/apr_8_opt_fragments_subset/singlepoint_5_CH3OH time=120.0 free_energy=-671.6120869900645 cutoff=8.0 nneightol=1.2 pbc="T T T"
C       -0.93840238       0.79231001      -0.02914210      -1.35563138       2.10100636      -0.37439992      -0.04561128       0.25171231       0.02487743
O        1.01578604      -1.07408243       0.29072846       0.46695749      -2.72309779       0.31764371      -0.18130674      -0.06808293       0.02862749
H       -1.70266474       0.03393497      -0.12513271       0.05203570       0.04063609      -0.00792800       0.24270305      -0.31230947      -0.01735135
H        1.30198691      -1.86610649      -0.14501832       0.36063131      -0.36604389      -0.30501383      -0.07096986       0.14729383      -0.03774265
H       -0.64506353       1.13893466       0.95810941      -0.46979486      -0.26600175       0.03601765      -0.07419888       0.14352287      -0.02696104
H       -0.58092919       1.32530978      -0.90340625       0.54913550       0.28555437       0.24535497      -0.03116517      -0.01789199       0.07960001
H        1.54928689      -0.35030050      -0.04613849       0.39666625       0.92794661       0.08832542       0.16054888      -0.14424462      -0.05104989
7
Lattice="13.0 0.0 0.0 0.0 9.0 0.0 0.0 0.0 9.0" Properties=species:S:1:pos:R:3:momenta:R:3:forces:R:3 EPS_SCF=1e-06 energy=-671.6137516030794 units=gap_units Integrated_spin_density=1.924e-05 opt_dir=/home/tks32/dft_pbe/apr_8_opt_fragments_subset/singlepoint_5_CH3OH time=120.0 free_energy=-671.6137516030794 cutoff=8.0 nneightol=1.2 pbc="T T T"
C       -0.93984764       0.79266604      -0.02880593      -1.35563138       2.10100636      -0.37439992       0.01962107       0.31252569       0.01587315
O        1.01543373      -1.07353419       0.29041954       0.46695749      -2.72309779       0.31764371      -0.22644566      -0.11118625       0.05982962
H       -1.70037974       0.03271135      -0.12518337       0.05203570       0.04063609      -0.00792800       0.19843541      -0.34996702      -0.01967754
H        1.30154311      -1.86493393      -0.14522016       0.36063131      -0.36604389      -0.30501383      -0.06896942       0.10991738      -0.04527850
H       -0.64539528       1.13999173       0.95813517      -0.46979486      -0.26600175       0.03601765      -0.08069888       0.13385148      -0.03441270
H       -0.58091853       1.32556445      -0.90335515       0.54913550       0.28555437       0.24535497      -0.03976347      -0.03610542       0.09899001
H        1.54956436      -0.35246545      -0.04599009       0.39666625       0.92794661       0.08832542       0.19782095      -0.05903586      -0.07532404
7
Lattice="13.0 0.0 0.0 0.0 9.0 0.0 0.0 0.0 9.0" Properties=species:S:1:pos:R:3:momenta:R:3:forces:R:3 EPS_SCF=1e-06 energy=-671.6157700850879 units=gap_units Integrated_spin_density=1.924e-05 opt_dir=/home/tks32/dft_pbe/apr_8_opt_fragments_subset/singlepoint_5_CH3OH time=120.0 free_energy=-671.6157700850879 cutoff=8.0 nneightol=1.2 pbc="T T T"
C       -0.94124860       0.79351971      -0.02844731      -1.35563138       2.10100636      -0.37439992       0.06138024       0.34367518       0.01060100
O        1.01472168      -1.07316901       0.29020926       0.46695749      -2.72309779       0.31764371      -0.25592788      -0.12739151       0.08254466
H       -1.69779708       0.03093780      -0.12526512       0.05203570       0.04063609      -0.00792800       0.17008993      -0.37095217      -0.01997919
H        1.30099273      -1.86359567      -0.14549277       0.36063131      -0.36604389      -0.30501383      -0.06654944       0.06210147      -0.05546472
H       -0.64585340       1.14125390       0.95810554      -0.46979486      -0.26600175       0.03601765      -0.08422089       0.12748866      -0.03541534
H       -0.58097168       1.32575899      -0.90314587       0.54913550       0.28555437       0.24535497      -0.04225295      -0.04564558       0.10606887
H        1.55015636      -0.35470573      -0.04596373       0.39666625       0.92794661       0.08832542       0.21748100       0.01072395      -0.08835528
7
Lattice="13.0 0.0 0.0 0.0 9.0 0.0 0.0 0.0 9.0" Properties=species:S:1:pos:R:3:momenta:R:3:forces:R:3 EPS_SCF=1e-06 energy=-671.618414712905 units=gap_units Integrated_spin_density=1.924e-05 opt_dir=/home/tks32/dft_pbe/apr_8_opt_fragments_subset/singlepoint_5_CH3OH time=120.0 free_energy=-671.618414712905 cutoff=8.0 nneightol=1.2 pbc="T T T"
C       -0.94252528       0.79500135      -0.02807192      -1.35563138       2.10100636      -0.37439992       0.06967049       0.33318946       0.01015382
O        1.01354260      -1.07304192       0.29015304       0.46695749      -2.72309779       0.31764371      -0.26084990      -0.10936907       0.09044977
H       -1.69492051       0.02849311      -0.12538313       0.05203570       0.04063609      -0.00792800       0.16452652      -0.36785018      -0.01743065
H        1.30032377      -1.86215318      -0.14586566       0.36063131      -0.36604389      -0.30501383      -0.06479113       0.00634788      -0.06683737
H       -0.64646347       1.14274162       0.95801075      -0.46979486      -0.26600175       0.03601765      -0.08364911       0.12586841      -0.02783430
H       -0.58110244       1.32586773      -0.90274236       0.54913550       0.28555437       0.24535497      -0.03657788      -0.04336884       0.09673508
H        1.55114534      -0.35690871      -0.04610072       0.39666625       0.92794661       0.08832542       0.21167100       0.05518235      -0.08523635
7
Lattice="13.0 0.0 0.0 0.0 9.0 0.0 0.0 0.0 9.0" Properties=species:S:1:pos:R:3:momenta:R:3:forces:R:3 EPS_SCF=1e-06 energy=-671.6217717151915 units=gap_units Integrated_spin_density=1.924e-05 opt_dir=/home/tks32/dft_pbe/apr_8_opt_fragments_subset/singlepoint_5_CH3OH time=120.0 free_energy=-671.6217717151915 cutoff=8.0 nneightol=1.2 pbc="T T T"
C       -0.94363947       0.79720893      -0.02767663      -1.35563138       2.10100636      -0.37439992       0.03857929       0.27330727       0.01509570
O        1.01179531      -1.07315725       0.29029697       0.46695749      -2.72309779       0.31764371      -0.23311933      -0.05629493       0.07664957
H       -1.69169991       0.02525241      -0.12553884       0.05203570       0.04063609      -0.00792800       0.18579391      -0.33547871      -0.01143585
H        1.29951620      -1.86070639      -0.14638367       0.36063131      -0.36604389      -0.30501383      -0.06587183      -0.05099417      -0.07597934
H       -0.64725418       1.14449733       0.95785513      -0.46979486      -0.26600175       0.03601765      -0.07839869       0.12984707      -0.01046077
H       -0.58131311       1.32587995      -0.90212791       0.54913550       0.28555437       0.24535497      -0.02154540      -0.02747796       0.06860347
H        1.55259517      -0.35897497      -0.04642505       0.39666625       0.92794661       0.08832542       0.17456206       0.06709143      -0.06247279
7
Lattice="13.0 0.0 0.0 0.0 9.0 0.0 0.0 0.0 9.0" Properties=species:S:1:pos:R:3:momenta:R:3:forces:R:3 EPS_SCF=1e-06 energy=-671.625581748318 units=gap_units Integrated_spin_density=1.924e-05 opt_dir=/home/tks32/dft_pbe/apr_8_opt_fragments_subset/singlepoint_5_CH3OH time=120.0 free_energy=-671.625581748318 cutoff=8.0 nneightol=1.2 pbc="T T T"
C       -0.94464027       0.80016264      -0.02724168      -1.35563138       2.10100636      -0.37439992      -0.02906162       0.16588959       0.02490000
O        1.00941083      -1.07342819       0.29065286       0.46695749      -2.72309779       0.31764371      -0.16806883       0.02102208       0.03479547
H       -1.68798184       0.02109884      -0.12572541       0.05203570       0.04063609      -0.00792800       0.23203133      -0.27398400      -0.00196251
H        1.29853036      -1.85940934      -0.14710964       0.36063131      -0.36604389      -0.30501383      -0.07336980      -0.09808046      -0.07674179
H       -0.64825803       1.14660352       0.95767134      -0.46979486      -0.26600175       0.03601765      -0.06902125       0.13898511       0.01581756
H       -0.58158239       1.32581582      -0.90132651       0.54913550       0.28555437       0.24535497       0.00210197       0.00091961       0.02310097
H        1.55452134      -0.36084330      -0.04692096       0.39666625       0.92794661       0.08832542       0.10538818       0.04524806      -0.01990971
7
Lattice="13.0 0.0 0.0 0.0 9.0 0.0 0.0 0.0 9.0" Properties=species:S:1:pos:R:3:momenta:R:3:forces:R:3 EPS_SCF=1e-06 energy=-671.6293736544177 units=gap_units Integrated_spin_density=1.924e-05 opt_dir=/home/tks32/dft_pbe/apr_8_opt_fragments_subset/singlepoint_5_CH3OH time=120.0 free_energy=-671.6293736544177 cutoff=8.0 nneightol=1.2 pbc="T T T"
C       -0.94574228       0.80370684      -0.02671805      -1.35563138       2.10100636      -0.37439992      -0.11336816       0.03265409       0.03660175
O        1.00642532      -1.07362133       0.29113381       0.46695749      -2.72309779       0.31764371      -0.07105416       0.09432123      -0.03662078
H       -1.68343594       0.01596670      -0.12591827       0.05203570       0.04063609      -0.00792800       0.29013003      -0.19457667       0.00986231
H        1.29728188      -1.85847543      -0.14811173       0.36063131      -0.36604389      -0.30501383      -0.09136048      -0.11808400      -0.06088837
H       -0.64950860       1.14920613       0.95754601      -0.46979486      -0.26600175       0.03601765      -0.05831037       0.15018604       0.04570897
H       -0.58184278       1.32575534      -0.90044468       0.54913550       0.28555437       0.24535497       0.02954237       0.03478126      -0.03023611
H        1.55682241      -0.36253825      -0.04748708       0.39666625       0.92794661       0.08832542       0.01442077       0.00071806       0.03557224
7
Lattice="13.0 0.0 0.0 0.0 9.0 0.0 0.0 0.0 9.0" Properties=species:S:1:pos:R:3:momenta:R:3:forces:R:3 EPS_SCF=1e-06 energy=-671.6330707963496 units=gap_units Integrated_spin_density=1.924e-05 opt_dir=/home/tks32/dft_pbe/apr_8_opt_fragments_subset/singlepoint_5_CH3OH time=120.0 free_energy=-671.6330707963496 cutoff=8.0 nneightol=1.2 pbc="T T T"
C       -0.94735369       0.80738627      -0.02603057      -1.35563138       2.10100636      -0.37439992      -0.17193067      -0.07652937       0.04360033
O        1.00312871      -1.07338670       0.29144723       0.46695749      -2.72309779       0.31764371       0.03105678       0.12394094      -0.12321189
H       -1.67759257       0.00997182      -0.12606578       0.05203570       0.04063609      -0.00792800       0.33227887      -0.12431276       0.02123513
H        1.29562419      -1.85807953      -0.14938595       0.36063131      -0.36604389      -0.30501383      -0.11898540      -0.10108973      -0.02537525
H       -0.65101873       1.15247949       0.95762808      -0.46979486      -0.26600175       0.03601765      -0.05199696       0.15665865       0.06765386
H       -0.58196848       1.32585256      -0.89970290       0.54913550       0.28555437       0.24535497       0.05011346       0.05885149      -0.07017566
H        1.55918058      -0.36422390      -0.04789012       0.39666625       0.92794661       0.08832542      -0.07053608      -0.03751922       0.08627349
7
Lattice="13.0 0.0 0.0 0.0 9.0 0.0 0.0 0.0 9.0" Properties=species:S:1:pos:R:3:momenta:R:3:forces:R:3 EPS_SCF=1e-06 energy=-671.6373117007486 units=gap_units Integrated_spin_density=1.924e-05 opt_dir=/home/tks32/dft_pbe/apr_8_opt_fragments_subset/singlepoint_5_CH3OH time=120.0 free_energy=-671.6373117007486 cutoff=8.0 nneightol=1.2 pbc="T T T"
C       -0.94982855       0.81067024      -0.02512482      -1.35563138       2.10100636      -0.37439992      -0.16399114      -0.11069187       0.03955830
O        0.99999714      -1.07252729       0.29113816       0.46695749      -2.72309779       0.31764371       0.09678422       0.09113663      -0.19385341
H       -1.67008736       0.00336483      -0.12610577       0.05203570       0.04063609      -0.00792800       0.33159385      -0.09130066       0.02915390
H        1.29337031      -1.85819470      -0.15078498       0.36063131      -0.36604389      -0.30501383      -0.14506580      -0.06060748       0.01870966
H       -0.65278742       1.15653505       0.95805132      -0.46979486      -0.26600175       0.03601765      -0.05553965       0.15151678       0.06976817
H       -0.58184099       1.32624648      -0.89931708       0.54913550       0.28555437       0.24535497       0.05294517       0.05821473      -0.07528643
H        1.56117688      -0.36609461      -0.04785682       0.39666625       0.92794661       0.08832542      -0.11672665      -0.03826813       0.11194981
7
Lattice="13.0 0.0 0.0 0.0 9.0 0.0 0.0 0.0 9.0" Properties=species:S:1:pos:R:3:momenta:R:3:forces:R:3 EPS_SCF=1e-06 energy=-671.6425853830953 units=gap_units Integrated_spin_density=1.924e-05 opt_dir=/home/tks32/dft_pbe/apr_8_opt_fragments_subset/singlepoint_5_CH3OH time=120.0 free_energy=-671.6425853830953 cutoff=8.0 nneightol=1.2 pbc="T T T"
C       -0.95325085       0.81330726      -0.02399099      -1.35563138       2.10100636      -0.37439992      -0.07514915      -0.04856127       0.02356779
O        0.99743163      -1.07114057       0.28970520       0.46695749      -2.72309779       0.31764371       0.08989027       0.00951618      -0.21572742
H       -1.66067015      -0.00376179      -0.12597661       0.05203570       0.04063609      -0.00792800       0.27947893      -0.10890186       0.03208436
H        1.29027842      -1.85866123      -0.15207340       0.36063131      -0.36604389      -0.30501383      -0.15370107      -0.02477877       0.05097093
H       -0.65487558       1.16146332       0.95887858      -0.46979486      -0.26600175       0.03601765      -0.07089629       0.13178918       0.04660685