7
Lattice="13.0 0.0 0.0 0.0 9.0 0.0 0.0 0.0 9.0" Properties=species:S:1:pos:R:3:momenta:R:3:forces:R:3 EPS_SCF=1e-06 energy=-670.8721338232208 units=gap_units Integrated_spin_density=1.924e-05 opt_dir=/home/tks32/dft_pbe/apr_8_opt_fragments_subset/singlepoint_5_CH3OH time=40.0 free_energy=-670.8721338232208 cutoff=8.0 nneightol=1.2 pbc="T T T"
C       -0.66445491       0.39384957       0.01901941      -0.67696378       0.36409795       0.62274049       0.10695572      -1.59786553      -0.29464439
O        0.62199792      -0.41916251       0.24595073       0.90418045       0.76078255       1.27255782      -0.20529511       3.03980521       0.69870080
H       -1.57027242      -0.26998278      -0.10482828       0.37421312       0.26608567      -0.47925791       1.03316669       0.57474832       0.06080591
H        0.58920192      -1.28035092      -0.12030494      -0.06687353      -0.36615984      -0.65031560      -0.05099503      -1.73401291      -0.95742242
H       -0.84265779       1.00324545       0.90290319      -0.40796507       0.39606037      -0.30035418      -0.03230276       0.11251695       0.56521610
H       -0.55605240       1.07949634      -0.84136898      -0.13791452      -0.09127620       0.10677186       0.11016243      -0.17193787      -0.17006569
H        2.42223768      -0.50709515      -0.10137114       0.01132333      -1.32959050      -0.57214248      -0.96169194      -0.22325417       0.09740969
7
Lattice="13.0 0.0 0.0 0.0 9.0 0.0 0.0 0.0 9.0" Properties=species:S:1:pos:R:3:momenta:R:3:forces:R:3 EPS_SCF=1e-06 energy=-670.9738291938916 units=gap_units Integrated_spin_density=1.924e-05 opt_dir=/home/tks32/dft_pbe/apr_8_opt_fragments_subset/singlepoint_5_CH3OH time=40.0 free_energy=-670.9738291938916 cutoff=8.0 nneightol=1.2 pbc="T T T"
C       -0.66338535       0.37787091       0.01607297      -0.67696378       0.36409795       0.62274049       0.36188794      -0.19642601       0.10886139
O        0.61994497      -0.38876446       0.25293774       0.90418045       0.76078255       1.27255782      -0.28364082       0.34049980      -0.30105963
H       -1.55994075      -0.26423530      -0.10422022       0.37421312       0.26608567      -0.47925791       0.52944832       0.09809588       0.00250777
H        0.58869197      -1.29769105      -0.12987916      -0.06687353      -0.36615984      -0.65031560       0.16551005       0.43647584       0.04027273
H       -0.84298082       1.00437062       0.90855535      -0.40796507       0.39606037      -0.30035418      -0.05437450      -0.16705013       0.12901662
H       -0.55495078       1.07777696      -0.84306964      -0.13791452      -0.09127620       0.10677186       0.04877928      -0.31305303      -0.04803019
H        2.41262076      -0.50932769      -0.10039704       0.01132333      -1.32959050      -0.57214248      -0.76761027      -0.19854235       0.06843131
7
Lattice="13.0 0.0 0.0 0.0 9.0 0.0 0.0 0.0 9.0" Properties=species:S:1:pos:R:3:momenta:R:3:forces:R:3 EPS_SCF=1e-06 energy=-670.9467330782599 units=gap_units Integrated_spin_density=1.924e-05 opt_dir=/home/tks32/dft_pbe/apr_8_opt_fragments_subset/singlepoint_5_CH3OH time=40.0 free_energy=-670.9467330782599 cutoff=8.0 nneightol=1.2 pbc="T T T"
C       -0.65761102       0.36087841       0.01486861      -0.67696378       0.36409795       0.62274049       0.56038650       1.28232926       0.42188259
O        0.61432597      -0.35687886       0.25522310       0.90418045       0.76078255       1.27255782      -0.16292911      -1.70288175      -0.90125509
H       -1.54360260      -0.25775826      -0.10363962       0.37421312       0.26608567      -0.47925791      -0.13281370      -0.47847941      -0.05435905
H        0.59043367      -1.30749370      -0.13796049      -0.06687353      -0.36615984      -0.65031560       0.29948120       1.84639733       0.69622990
H       -0.84399452       1.00316214       0.91535773      -0.40796507       0.39606037      -0.30035418      -0.09165272      -0.37962070      -0.24973525
H       -0.55331073       1.07206711      -0.84523885      -0.13791452      -0.09127620       0.10677186      -0.01035087      -0.38562051       0.05899722
H        2.39375924      -0.51397684      -0.09861048       0.01132333      -1.32959050      -0.57214248      -0.46212130      -0.18212423       0.02823968
7
Lattice="13.0 0.0 0.0 0.0 9.0 0.0 0.0 0.0 9.0" Properties=species:S:1:pos:R:3:momenta:R:3:forces:R:3 EPS_SCF=1e-06 energy=-670.9710323739722 units=gap_units Integrated_spin_density=1.924e-05 opt_dir=/home/tks32/dft_pbe/apr_8_opt_fragments_subset/singlepoint_5_CH3OH time=40.0 free_energy=-670.9710323739722 cutoff=8.0 nneightol=1.2 pbc="T T T"
C       -0.65621005       0.36408423       0.01592332      -0.67696378       0.36409795       0.62274049       0.42320892       1.00127249       0.33986182
O        0.61391865      -0.36113606       0.25296996       0.90418045       0.76078255       1.27255782      -0.12847155      -1.33588578      -0.74775691
H       -1.54393464      -0.25895446      -0.10377552       0.37421312       0.26608567      -0.47925791      -0.02650036      -0.37731968      -0.03746274
H        0.59118237      -1.30287770      -0.13621992      -0.06687353      -0.36615984      -0.65031560       0.25942289       1.55014640       0.55976013
H       -0.84422365       1.00221309       0.91473339      -0.40796507       0.39606037      -0.30035418      -0.07610748      -0.31909193      -0.17682644
H       -0.55333661       1.07110305      -0.84509135      -0.13791452      -0.09127620       0.10677186       0.00849296      -0.33582759       0.03229189
H        2.39260393      -0.51443215      -0.09853988       0.01132333      -1.32959050      -0.57214248      -0.46004537      -0.18329392       0.03013226
7
Lattice="13.0 0.0 0.0 0.0 9.0 0.0 0.0 0.0 9.0" Properties=species:S:1:pos:R:3:momenta:R:3:forces:R:3 EPS_SCF=1e-06 energy=-671.0018895544514 units=gap_units Integrated_spin_density=1.924e-05 opt_dir=/home/tks32/dft_pbe/apr_8_opt_fragments_subset/singlepoint_5_CH3OH time=40.0 free_energy=-671.0018895544514 cutoff=8.0 nneightol=1.2 pbc="T T T"
C       -0.65376099       0.36978061       0.01782674      -0.67696378       0.36409795       0.62274049       0.19612677       0.50632464       0.19038724
O        0.61319136      -0.36871814       0.24884276       0.90418045       0.76078255       1.27255782      -0.06623707      -0.61243884      -0.44548799
H       -1.54430787      -0.26109039      -0.10400301       0.37421312       0.26608567      -0.47925791       0.14889747      -0.20516625      -0.00807603
H        0.59258455      -1.29437117      -0.13308183      -0.06687353      -0.36615984      -0.65031560       0.18717985       0.95145558       0.28810557
H       -0.84464354       1.00046307       0.91367503      -0.40796507       0.39606037      -0.30035418      -0.05126600      -0.20840366      -0.04263383
H       -0.55333606       1.06929255      -0.84486795      -0.13791452      -0.09127620       0.10677186       0.04044997      -0.24591453      -0.01579360
H        2.39027255      -0.51535654      -0.09839174       0.01132333      -1.32959050      -0.57214248      -0.45515098      -0.18585693       0.03349863
7
Lattice="13.0 0.0 0.0 0.0 9.0 0.0 0.0 0.0 9.0" Properties=species:S:1:pos:R:3:momenta:R:3:forces:R:3 EPS_SCF=1e-06 energy=-671.0159533123767 units=gap_units Integrated_spin_density=1.924e-05 opt_dir=/home/tks32/dft_pbe/apr_8_opt_fragments_subset/singlepoint_5_CH3OH time=40.0 free_energy=-671.0159533123767 cutoff=8.0 nneightol=1.2 pbc="T T T"
C       -0.65087673       0.37666315       0.02020003      -0.67696378       0.36409795       0.62274049      -0.04763948      -0.07868996       0.00388520
O        0.61230712      -0.37766578       0.24358344       0.90418045       0.76078255       1.27255782       0.00971229       0.35784983      -0.03821684
H       -1.54412745      -0.26372419      -0.10423575       0.37421312       0.26608567      -0.47925791       0.33198714      -0.01314130       0.02605432
H        0.59449560      -1.28341590      -0.12925849      -0.06687353      -0.36615984      -0.65031560       0.09961332       0.12476656      -0.08039377
H       -0.84519923       0.99816537       0.91257467      -0.40796507       0.39606037      -0.30035418      -0.02708145      -0.06838409       0.12645253
H       -0.55319529       1.06681033      -0.84472165      -0.13791452      -0.09127620       0.10677186       0.07536044      -0.13308490      -0.07480864
H        2.38659597      -0.51683299      -0.09814225       0.01132333      -1.32959050      -0.57214248      -0.44195226      -0.18931614       0.03702720
7
Lattice="13.0 0.0 0.0 0.0 9.0 0.0 0.0 0.0 9.0" Properties=species:S:1:pos:R:3:momenta:R:3:forces:R:3 EPS_SCF=1e-06 energy=-671.0163032872883 units=gap_units Integrated_spin_density=1.924e-05 opt_dir=/home/tks32/dft_pbe/apr_8_opt_fragments_subset/singlepoint_5_CH3OH time=40.0 free_energy=-671.0163032872883 cutoff=8.0 nneightol=1.2 pbc="T T T"
C       -0.65090650       0.37661397       0.02020246      -0.67696378       0.36409795       0.62274049      -0.04313879      -0.07066914       0.00535175
O        0.61231319      -0.37744212       0.24355956       0.90418045       0.76078255       1.27255782       0.00974216       0.34827892      -0.04009868
H       -1.54391995      -0.26373240      -0.10421947       0.37421312       0.26608567      -0.47925791       0.32496845      -0.01735681       0.02549909
H        0.59455786      -1.28333792      -0.12930874      -0.06687353      -0.36615984      -0.65031560       0.10016148       0.12987051      -0.07767605
H       -0.84521615       0.99812263       0.91265370      -0.40796507       0.39606037      -0.30035418      -0.02776293      -0.06862909       0.12446918
H       -0.55314819       1.06672715      -0.84476841      -0.13791452      -0.09127620       0.10677186       0.07429396      -0.13249802      -0.07415199
H        2.38631975      -0.51695131      -0.09811911       0.01132333      -1.32959050      -0.57214248      -0.43826433      -0.18899637       0.03660671
7
Lattice="13.0 0.0 0.0 0.0 9.0 0.0 0.0 0.0 9.0" Properties=species:S:1:pos:R:3:momenta:R:3:forces:R:3 EPS_SCF=1e-06 energy=-671.0169834741766 units=gap_units Integrated_spin_density=1.924e-05 opt_dir=/home/tks32/dft_pbe/apr_8_opt_fragments_subset/singlepoint_5_CH3OH time=40.0 free_energy=-671.0169834741766 cutoff=8.0 nneightol=1.2 pbc="T T T"
C       -0.65096300       0.37652106       0.02020832      -0.67696378       0.36409795       0.62274049      -0.03442928      -0.05510669       0.00818091
O        0.61232536      -0.37700107       0.24351046       0.90418045       0.76078255       1.27255782       0.00983996       0.32967602      -0.04365968
H       -1.54350950      -0.26375174      -0.10418726       0.37421312       0.26608567      -0.47925791       0.31120382      -0.02557031       0.02442025
H        0.59468284      -1.28317833      -0.12940743      -0.06687353      -0.36615984      -0.65031560       0.10120385       0.13966925      -0.07243164
H       -0.84525050       0.99803692       0.91281052      -0.40796507       0.39606037      -0.30035418      -0.02910152      -0.06904160       0.12060938
H       -0.55305465       1.06656108      -0.84486153      -0.13791452      -0.09127620       0.10677186       0.07219708      -0.13126443      -0.07288851
H        2.38576945      -0.51718791      -0.09807308       0.01132333      -1.32959050      -0.57214248      -0.43091391      -0.18836224       0.03576929
7
Lattice="13.0 0.0 0.0 0.0 9.0 0.0 0.0 0.0 9.0" Properties=species:S:1:pos:R:3:momenta:R:3:forces:R:3 EPS_SCF=1e-06 energy=-671.0179573731072 units=gap_units Integrated_spin_density=1.924e-05 opt_dir=/home/tks32/dft_pbe/apr_8_opt_fragments_subset/singlepoint_5_CH3OH time=40.0 free_energy=-671.0179573731072 cutoff=8.0 nneightol=1.2 pbc="T T T"
C       -0.65103982       0.37639586       0.02021978      -0.67696378       0.36409795       0.62274049      -0.02212724      -0.03300655       0.01215543
O        0.61234373      -0.37635541       0.24343333       0.90418045       0.76078255       1.27255782       0.01008354       0.30315618      -0.04847966
H       -1.54290531      -0.26378844      -0.10413985       0.37421312       0.26608567      -0.47925791       0.29126646      -0.03732296       0.02288486
H        0.59487168      -1.28292933      -0.12955090      -0.06687353      -0.36615984      -0.65031560       0.10262933       0.15331463      -0.06505564
H       -0.84530336       0.99790769       0.91304264      -0.40796507       0.39606037      -0.30035418      -0.03104566      -0.06945935       0.11509378
H       -0.55291600       1.06631258      -0.84500034      -0.13791452      -0.09127620       0.10677186       0.06914482      -0.12925773      -0.07112092
H        2.38494908      -0.51754295      -0.09800467       0.01132333      -1.32959050      -0.57214248      -0.41995125      -0.18742421       0.03452215
7
Lattice="13.0 0.0 0.0 0.0 9.0 0.0 0.0 0.0 9.0" Properties=species:S:1:pos:R:3:momenta:R:3:forces:R:3 EPS_SCF=1e-06 energy=-671.0191773787743 units=gap_units Integrated_spin_density=1.924e-05 opt_dir=/home/tks32/dft_pbe/apr_8_opt_fragments_subset/singlepoint_5_CH3OH time=40.0 free_energy=-671.0191773787743 cutoff=8.0 nneightol=1.2 pbc="T T T"
C       -0.65112720       0.37625597       0.02024011      -0.67696378       0.36409795       0.62274049      -0.00719085      -0.00591289       0.01694268
O        0.61236859      -0.37552434       0.24332394       0.90418045       0.76078255       1.27255782       0.01058709       0.27040674      -0.05392480
H       -1.54212136      -0.26385224      -0.10407831       0.37421312       0.26608567      -0.47925791       0.26604818      -0.05190037       0.02099767
H        0.59512626      -1.28257882      -0.12973367      -0.06687353      -0.36615984      -0.65031560       0.10427092       0.16952510      -0.05614411
H       -0.84537654       0.99773411       0.91334646      -0.40796507       0.39606037      -0.30035418      -0.03351446      -0.06963564       0.10825493
H       -0.55273420       1.06598235      -0.84518390      -0.13791452      -0.09127620       0.10677186       0.06525210      -0.12628582      -0.06900275
H        2.38386446      -0.51801704      -0.09791464       0.01132333      -1.32959050      -0.57214248      -0.40545298      -0.18619711       0.03287637
7
Lattice="13.0 0.0 0.0 0.0 9.0 0.0 0.0 0.0 9.0" Properties=species:S:1:pos:R:3:momenta:R:3:forces:R:3 EPS_SCF=1e-06 energy=-671.0205919237349 units=gap_units Integrated_spin_density=1.924e-05 opt_dir=/home/tks32/dft_pbe/apr_8_opt_fragments_subset/singlepoint_5_CH3OH time=40.0 free_energy=-671.0205919237349 cutoff=8.0 nneightol=1.2 pbc="T T T"
C       -0.65121231       0.37612475       0.02027365      -0.67696378       0.36409795       0.62274049       0.00908501       0.02411293       0.02210155
O        0.61240048      -0.37453312       0.24317697       0.90418045       0.76078255       1.27255782       0.01149128       0.23363667      -0.05917302
H       -1.54117648      -0.26395635      -0.10400403       0.37421312       0.26608567      -0.47925791       0.23676360      -0.06833208       0.01890099
H        0.59544918      -1.28211085      -0.12994866      -0.06687353      -0.36615984      -0.65031560       0.10591196       0.18663248      -0.04647238
H       -0.84547255       0.99751525       0.91371728      -0.40796507       0.39606037      -0.30035418      -0.03639650      -0.06924929       0.10052533
H       -0.55251189       1.06557154      -0.84541119      -0.13791452      -0.09127620       0.10677186       0.06067213      -0.12210151      -0.06672996
H        2.38252357      -0.51861121      -0.09780403       0.01132333      -1.32959050      -0.57214248      -0.38752747      -0.18469920       0.03084749
7
Lattice="13.0 0.0 0.0 0.0 9.0 0.0 0.0 0.0 9.0" Properties=species:S:1:pos:R:3:momenta:R:3:forces:R:3 EPS_SCF=1e-06 energy=-671.0221524320374 units=gap_units Integrated_spin_density=1.924e-05 opt_dir=/home/tks32/dft_pbe/apr_8_opt_fragments_subset/singlepoint_5_CH3OH time=40.0 free_energy=-671.0221524320374 cutoff=8.0 nneightol=1.2 pbc="T T T"
C       -0.65128002       0.37603026       0.02032548      -0.67696378       0.36409795       0.62274049       0.02511214       0.05457374       0.02710230
O        0.61244043      -0.37341221       0.24298676       0.90418045       0.76078255       1.27255782       0.01294578       0.19546434      -0.06326711
H       -1.54009422      -0.26411697      -0.10391867       0.37421312       0.26608567      -0.47925791       0.20492776      -0.08541480       0.01677059
H        0.59584354      -1.28150690      -0.13018767      -0.06687353      -0.36615984      -0.65031560       0.10729907       0.20268118      -0.03694973
H       -0.84559461       0.99725045       0.91414946      -0.40796507       0.39606037      -0.30035418      -0.03955113      -0.06792743       0.09241204
H       -0.55225238       1.06508223      -0.84568110      -0.13791452      -0.09127620       0.10677186       0.05559087      -0.11642604      -0.06452449
H        2.38093725      -0.51932686      -0.09767427       0.01132333      -1.32959050      -0.57214248      -0.36632449      -0.18295098       0.02845641
7
Lattice="13.0 0.0 0.0 0.0 9.0 0.0 0.0 0.0 9.0" Properties=species:S:1:pos:R:3:momenta:R:3:forces:R:3 EPS_SCF=1e-06 energy=-671.0238181002782 units=gap_units Integrated_spin_density=1.924e-05 opt_dir=/home/tks32/dft_pbe/apr_8_opt_fragments_subset/singlepoint_5_CH3OH time=40.0 free_energy=-671.0238181002782 cutoff=8.0 nneightol=1.2 pbc="T T T"
C       -0.65131426       0.37600323       0.02040094      -0.67696378       0.36409795       0.62274049       0.03911235       0.08270319       0.03136445
O        0.61249015      -0.37219566       0.24274832       0.90418045       0.76078255       1.27255782       0.01508325       0.15872399      -0.06520175
H       -1.53890238      -0.26435231      -0.10382402       0.37421312       0.26608567      -0.47925791       0.17228699      -0.10177482       0.01480520
H        0.59631249      -1.28074794      -0.13044205      -0.06687353      -0.36615984      -0.65031560       0.10816340       0.21559343      -0.02854420
H       -0.84574649       0.99693994       0.91463664      -0.40796507       0.39606037      -0.30035418      -0.04281402      -0.06528414       0.08445372
H       -0.55195974       1.06451812      -0.84599259      -0.13791452      -0.09127620       0.10677186       0.05021515      -0.10898794      -0.06260771
H        2.37912023      -0.52016537      -0.09752725       0.01132333      -1.32959050      -0.57214248      -0.34204710      -0.18097371       0.02573029
7
Lattice="13.0 0.0 0.0 0.0 9.0 0.0 0.0 0.0 9.0" Properties=species:S:1:pos:R:3:momenta:R:3:forces:R:3 EPS_SCF=1e-06 energy=-671.0257437393689 units=gap_units Integrated_spin_density=1.924e-05 opt_dir=/home/tks32/dft_pbe/apr_8_opt_fragments_subset/singlepoint_5_CH3OH time=40.0 free_energy=-671.0257437393689 cutoff=8.0 nneightol=1.2 pbc="T T T"
C       -0.65129607       0.37608663       0.02051741      -0.67696378       0.36409795       0.62274049       0.05016412       0.10789903       0.03455693
O        0.61255947      -0.37077984       0.24242542       0.90418045       0.76078255       1.27255782       0.01833628       0.12295937      -0.06375305
H       -1.53749296      -0.26472087      -0.10371060       0.37421312       0.26608567      -0.47925791       0.13739208      -0.11736928       0.01305840
H        0.59692084      -1.27970938      -0.13073191      -0.06687353      -0.36615984      -0.65031560       0.10821572       0.22395392      -0.02161163
H       -0.84595389       0.99654557       0.91523146      -0.40796507       0.39606037      -0.30035418      -0.04634411      -0.06042790       0.07642043
H       -0.55160314       1.06381446      -0.84638437      -0.13791452      -0.09127620       0.10677186       0.04416836      -0.09847090      -0.06103622
H        2.37686574      -0.52123658      -0.09734742       0.01132333      -1.32959050      -0.57214248      -0.31193244      -0.17854423       0.02236514
7
Lattice="13.0 0.0 0.0 0.0 9.0 0.0 0.0 0.0 9.0" Properties=species:S:1:pos:R:3:momenta:R:3:forces:R:3 EPS_SCF=1e-06 energy=-671.0279284768288 units=gap_units Integrated_spin_density=1.924e-05 opt_dir=/home/tks32/dft_pbe/apr_8_opt_fragments_subset/singlepoint_5_CH3OH time=40.0 free_energy=-671.0279284768288 cutoff=8.0 nneightol=1.2 pbc="T T T"
C       -0.65119479       0.37634833       0.02069020      -0.67696378       0.36409795       0.62274049       0.05501637       0.12551413       0.03562450
O        0.61265859      -0.36917258       0.24199960       0.90418045       0.76078255       1.27255782       0.02297885       0.09229210      -0.05693082
H       -1.53586811      -0.26528090      -0.10357652       0.37421312       0.26608567      -0.47925791       0.10256869      -0.12985346       0.01187563
H        0.59770335      -1.27830844      -0.13105504      -0.06687353      -0.36615984      -0.65031560       0.10691643       0.22408129      -0.01773675
H       -0.84623634       0.99605444       0.91594778      -0.40796507       0.39606037      -0.30035418      -0.04992732      -0.05244609       0.06896471
H       -0.55117642       1.06295367      -0.84687394      -0.13791452      -0.09127620       0.10677186       0.03759207      -0.08400082      -0.06007241
H        2.37411371      -0.52259452      -0.09713208       0.01132333      -1.32959050      -0.57214248      -0.27514509      -0.17558715       0.01827515
7
Lattice="13.0 0.0 0.0 0.0 9.0 0.0 0.0 0.0 9.0" Properties=species:S:1:pos:R:3:momenta:R:3:forces:R:3 EPS_SCF=1e-06 energy=-671.0303474584641 units=gap_units Integrated_spin_density=1.924e-05 opt_dir=/home/tks32/dft_pbe/apr_8_opt_fragments_subset/singlepoint_5_CH3OH time=40.0 free_energy=-671.0303474584641 cutoff=8.0 nneightol=1.2 pbc="T T T"
C       -0.65098042       0.37686779       0.02093537      -0.67696378       0.36409795       0.62274049       0.04988316       0.13007452       0.03334692
O        0.61280451      -0.36738684       0.24145926       0.90418045       0.76078255       1.27255782       0.02906307       0.07143965      -0.04261955
H       -1.53404363      -0.26610535      -0.10341891       0.37421312       0.26608567      -0.47925791       0.07091018      -0.13623723       0.01167026
H        0.59870105      -1.27645461      -0.13141237      -0.06687353      -0.36615984      -0.65031560       0.10366035       0.21198486      -0.01864405
H       -0.84661993       0.99545859       0.91680126      -0.40796507       0.39606037      -0.30035418      -0.05326933      -0.04043778       0.06271573
H       -0.55067522       1.06192573      -0.84748403      -0.13791452      -0.09127620       0.10677186       0.03063649      -0.06481503      -0.05984163
H        2.37081365      -0.52430531      -0.09688059       0.01132333      -1.32959050      -0.57214248      -0.23088391      -0.17200900       0.01337231
7
Lattice="13.0 0.0 0.0 0.0 9.0 0.0 0.0 0.0 9.0" Properties=species:S:1:pos:R:3:momenta:R:3:forces:R:3 EPS_SCF=1e-06 energy=-671.0329226188824 units=gap_units Integrated_spin_density=1.924e-05 opt_dir=/home/tks32/dft_pbe/apr_8_opt_fragments_subset/singlepoint_5_CH3OH time=40.0 free_energy=-671.0329226188824 cutoff=8.0 nneightol=1.2 pbc="T T T"
C       -0.65063756       0.37772260       0.02126576      -0.67696378       0.36409795       0.62274049       0.03140338       0.11657328       0.02662786
O        0.61302515      -0.36542703       0.24081154       0.90418045       0.76078255       1.27255782       0.03614815       0.06438506      -0.01919651
H       -1.53204672      -0.26727914      -0.10323195       0.37421312       0.26608567      -0.47925791       0.04571298      -0.13335165       0.01282630
H        0.59996206      -1.27406106      -0.13181586      -0.06687353      -0.36615984      -0.65031560       0.09790782       0.18453685      -0.02567118
H       -0.84713970       0.99476140       0.91781237      -0.40796507       0.39606037      -0.30035418      -0.05604260      -0.02384118       0.05789778
H       -0.55009759       1.06073587      -0.84824590      -0.13791452      -0.09127620       0.10677186       0.02333544      -0.04062360      -0.06005153
H        2.36693437      -0.52645265      -0.09659596       0.01132333      -1.32959050      -0.57214248      -0.17846517      -0.16767877       0.00756729
7
Lattice="13.0 0.0 0.0 0.0 9.0 0.0 0.0 0.0 9.0" Properties=species:S:1:pos:R:3:momenta:R:3:forces:R:3 EPS_SCF=1e-06 energy=-671.0354924797851 units=gap_units Integrated_spin_density=1.924e-05 opt_dir=/home/tks32/dft_pbe/apr_8_opt_fragments_subset/singlepoint_5_CH3OH time=40.0 free_energy=-671.0354924797851 cutoff=8.0 nneightol=1.2 pbc="T T T"
C       -0.65019168       0.37896216       0.02168327      -0.67696378       0.36409795       0.62274049      -0.00144000       0.08299358       0.01506904
O        0.61336535      -0.36326314       0.24010333       0.90418045       0.76078255       1.27255782       0.04302437       0.07190077       0.01332157
H       -1.52990835      -0.26889195      -0.10300319       0.37421312       0.26608567      -0.47925791       0.02924015      -0.11887529       0.01549398
H        0.60154314      -1.27106432      -0.13230286      -0.06687353      -0.36615984      -0.65031560       0.08941433       0.14161877      -0.03881285
H       -0.84784383       0.99398850       0.91901125      -0.40796507       0.39606037      -0.30035418      -0.05798724      -0.00302038       0.05364382
H       -0.54944524       1.05941698      -0.84920415      -0.13791452      -0.09127620       0.10677186       0.01537838      -0.01223625      -0.05951553
H        2.36248062      -0.52914822      -0.09628766       0.01132333      -1.32959050      -0.57214248      -0.11762999      -0.16238119       0.00079997
7
Lattice="13.0 0.0 0.0 0.0 9.0 0.0 0.0 0.0 9.0" Properties=species:S:1:pos:R:3:momenta:R:3:forces:R:3 EPS_SCF=1e-06 energy=-671.0378273787903 units=gap_units Integrated_spin_density=1.924e-05 opt_dir=/home/tks32/dft_pbe/apr_8_opt_fragments_subset/singlepoint_5_CH3OH time=40.0 free_energy=-671.0378273787903 cutoff=8.0 nneightol=1.2 pbc="T T T"
C       -0.64975418       0.38056028       0.02216500      -0.67696378       0.36409795       0.62274049      -0.04404450       0.03453450      -0.00000746
O        0.61389282      -0.36079364       0.23945686       0.90418045       0.76078255       1.27255782       0.04714875       0.08758257       0.05141442
H       -1.52765149      -0.27101909      -0.10270747       0.37421312       0.26608567      -0.47925791       0.02060630      -0.09319174       0.01922809
H        0.60350940      -1.26745981      -0.13295797      -0.06687353      -0.36615984      -0.65031560       0.07859954       0.08964244      -0.05516434
H       -0.84879923       0.99320589       0.92044005      -0.40796507       0.39606037      -0.30035418      -0.05908009       0.01976785       0.04694044
H       -0.54872840       1.05805046      -0.85041921      -0.13791452      -0.09127620       0.10677186       0.00577198       0.01743915      -0.05547884
H        2.35753109      -0.53254409      -0.09597726       0.01132333      -1.32959050      -0.57214248      -0.04900197      -0.15577477      -0.00693232
