7
Lattice="13.0 0.0 0.0 0.0 9.0 0.0 0.0 0.0 9.0" Properties=species:S:1:pos:R:3:momenta:R:3:forces:R:3 EPS_SCF=1e-06 energy=-669.9438175741723 units=gap_units Integrated_spin_density=1.924e-05 opt_dir=/home/tks32/dft_pbe/apr_8_opt_fragments_subset/singlepoint_5_CH3OH time=15.0 free_energy=-669.9438175741723 cutoff=8.0 nneightol=1.2 pbc="T T T"
C       -0.66612637       0.31854554      -0.04609010      -0.27182460       0.42681446       0.54816654      -1.73903337      -0.66278134       0.42613221
O        0.09752413      -0.87947417      -0.34611027       1.49731807      -0.81646626      -0.44068703       0.18657404       0.69042716      -0.19072885
H       -1.79420886       0.05122356       0.05742264       0.06078057       0.06391883       0.03492908       1.44547024       0.40564914      -0.06921599
H        0.55426574      -1.18309994       0.44946409      -0.61128966       0.12496229       0.17247520       0.09568989      -0.33912535       0.51683222
H       -0.37156196       0.90428206       0.86228517      -0.04710026       0.30241912      -0.27294023      -0.08775574      -0.26322262      -0.06184311
H       -0.58295867       0.99023621      -0.90033525      -0.25533303       0.00301973       0.11413787      -0.11756534       0.34524395      -0.52012451
H        2.76306599      -0.20171325      -0.07663629      -0.37255110      -0.10466817      -0.15608142       0.21662030      -0.17619095      -0.10105198
7
Lattice="13.0 0.0 0.0 0.0 9.0 0.0 0.0 0.0 9.0" Properties=species:S:1:pos:R:3:momenta:R:3:forces:R:3 EPS_SCF=1e-06 energy=-669.996153393784 units=gap_units Integrated_spin_density=1.924e-05 opt_dir=/home/tks32/dft_pbe/apr_8_opt_fragments_subset/singlepoint_5_CH3OH time=15.0 free_energy=-669.996153393784 cutoff=8.0 nneightol=1.2 pbc="T T T"
C       -0.68351670       0.31191773      -0.04182878      -0.27182460       0.42681446       0.54816654      -0.62550675      -0.04285538      -0.01460344
O        0.09938987      -0.87256990      -0.34801756       1.49731807      -0.81646626      -0.44068703       0.31660765       0.47023415       0.14153196
H       -1.77975416       0.05528005       0.05673048       0.06078057       0.06391883       0.03492908       0.64516895       0.15799416       0.00717919
H        0.55522264      -1.18649119       0.45463241      -0.61128966       0.12496229       0.17247520      -0.11828692      -0.20444206       0.18950437
H       -0.37243952       0.90164983       0.86166674      -0.04710026       0.30241912      -0.27294023      -0.18420932      -0.28078425      -0.09302114
H       -0.58413432       0.99368865      -0.90553650      -0.25533303       0.00301973       0.11413787      -0.23896116       0.07468835      -0.12749826
H        2.76523219      -0.20347516      -0.07764681      -0.37255110      -0.10466817      -0.15608142       0.20518754      -0.17483496      -0.10309269
7
Lattice="13.0 0.0 0.0 0.0 9.0 0.0 0.0 0.0 9.0" Properties=species:S:1:pos:R:3:momenta:R:3:forces:R:3 EPS_SCF=1e-06 energy=-669.9975391025549 units=gap_units Integrated_spin_density=1.924e-05 opt_dir=/home/tks32/dft_pbe/apr_8_opt_fragments_subset/singlepoint_5_CH3OH time=15.0 free_energy=-669.9975391025549 cutoff=8.0 nneightol=1.2 pbc="T T T"
C       -0.70679065       0.30543044      -0.03817155      -0.27182460       0.42681446       0.54816654       1.25006496       0.68553948      -0.46283062
O        0.10492733      -0.86062561      -0.34800936       1.49731807      -0.81646626      -0.44068703       0.40641055       0.21831110       0.42439878
H       -1.75888267       0.06085627       0.05619502       0.06078057       0.06391883       0.03492908      -0.80062947      -0.25353382       0.11943411
H        0.55464236      -1.19203472       0.46159327      -0.61128966       0.12496229       0.17247520      -0.34621083      -0.04208617      -0.12548425
H       -0.37547416       0.89585909       0.85997656      -0.04710026       0.30241912      -0.27294023      -0.31196045      -0.24753167      -0.10681849
H       -0.58810448       0.99770602      -0.91177135      -0.25533303       0.00301973       0.11413787      -0.40274622      -0.18370500       0.25687469
H        2.76968226      -0.20719148      -0.07981260      -0.37255110      -0.10466817      -0.15608142       0.20507147      -0.17699392      -0.10557422
7
Lattice="13.0 0.0 0.0 0.0 9.0 0.0 0.0 0.0 9.0" Properties=species:S:1:pos:R:3:momenta:R:3:forces:R:3 EPS_SCF=1e-06 energy=-670.0066184172813 units=gap_units Integrated_spin_density=1.924e-05 opt_dir=/home/tks32/dft_pbe/apr_8_opt_fragments_subset/singlepoint_5_CH3OH time=15.0 free_energy=-670.0066184172813 cutoff=8.0 nneightol=1.2 pbc="T T T"
C       -0.70366549       0.30714429      -0.03932863      -0.27182460       0.42681446       0.54816654       0.97486788       0.54594331      -0.38282470
O        0.10594336      -0.86007984      -0.34694836       1.49731807      -0.81646626      -0.44068703       0.39400126       0.24509965       0.34016002
H       -1.76088424       0.06022243       0.05649361       0.06078057       0.06391883       0.03492908      -0.60750292      -0.20249515       0.09885757
H        0.55377683      -1.19213994       0.46127956      -0.61128966       0.12496229       0.17247520      -0.31175773      -0.06193087      -0.05785062
H       -0.37625406       0.89524026       0.85970952      -0.04710026       0.30241912      -0.27294023      -0.28182239      -0.21645727      -0.08043382
H       -0.58911134       0.99724676      -0.91112917      -0.25533303       0.00301973       0.11413787      -0.37227906      -0.13181021       0.18742200
H        2.77019494      -0.20763396      -0.08007654      -0.37255110      -0.10466817      -0.15608142       0.20449296      -0.17834945      -0.10533045
7
Lattice="13.0 0.0 0.0 0.0 9.0 0.0 0.0 0.0 9.0" Properties=species:S:1:pos:R:3:momenta:R:3:forces:R:3 EPS_SCF=1e-06 energy=-670.0184562949125 units=gap_units Integrated_spin_density=1.924e-05 opt_dir=/home/tks32/dft_pbe/apr_8_opt_fragments_subset/singlepoint_5_CH3OH time=15.0 free_energy=-670.0184562949125 cutoff=8.0 nneightol=1.2 pbc="T T T"
C       -0.69811625       0.31021930      -0.04144464      -0.27182460       0.42681446       0.54816654       0.50417744       0.29716340      -0.23630531
O        0.10796380      -0.85890061      -0.34503859       1.49731807      -0.81646626      -0.44068703       0.37243720       0.29257672       0.18933821
H       -1.76439101       0.05908355       0.05703984       0.06078057       0.06391883       0.03492908      -0.28110272      -0.11543640       0.06242071
H        0.55212271      -1.19240848       0.46083482      -0.61128966       0.12496229       0.17247520      -0.25140211      -0.09698634       0.06224272
H       -0.37774709       0.89407569       0.85924339      -0.04710026       0.30241912      -0.27294023      -0.22890970      -0.15965129      -0.03307735
H       -0.59106256       0.99646341      -0.91002508      -0.25533303       0.00301973       0.11413787      -0.31871947      -0.03661637       0.06032371
H        2.77123039      -0.20853285      -0.08060976      -0.37255110      -0.10466817      -0.15608142       0.20351936      -0.18104972      -0.10494269
7
Lattice="13.0 0.0 0.0 0.0 9.0 0.0 0.0 0.0 9.0" Properties=species:S:1:pos:R:3:momenta:R:3:forces:R:3 EPS_SCF=1e-06 energy=-670.0260790223075 units=gap_units Integrated_spin_density=1.924e-05 opt_dir=/home/tks32/dft_pbe/apr_8_opt_fragments_subset/singlepoint_5_CH3OH time=15.0 free_energy=-670.0260790223075 cutoff=8.0 nneightol=1.2 pbc="T T T"
C       -0.69142564       0.31398660      -0.04414410      -0.27182460       0.42681446       0.54816654      -0.03327582      -0.00238411      -0.05210347
O        0.11103525      -0.85685493      -0.34268276       1.49731807      -0.81646626      -0.44068703       0.35004747       0.34752923       0.00679272
H       -1.76849286       0.05767017       0.05774147       0.06078057       0.06391883       0.03492908       0.08404570      -0.01779972       0.01830915
H        0.54978816      -1.19297648       0.46064398      -0.61128966       0.12496229       0.17247520      -0.18205215      -0.13771662       0.20447356
H       -0.37986097       0.89249043       0.85871258      -0.04710026       0.30241912      -0.27294023      -0.16597035      -0.08692475       0.02492247
H       -0.59389099       0.99563521      -0.90882844      -0.25533303       0.00301973       0.11413787      -0.25505532       0.08246709      -0.09777247
H        2.77284704      -0.20995099      -0.08144273      -0.37255110      -0.10466817      -0.15608142       0.20226047      -0.18517112      -0.10462196
7
Lattice="13.0 0.0 0.0 0.0 9.0 0.0 0.0 0.0 9.0" Properties=species:S:1:pos:R:3:momenta:R:3:forces:R:3 EPS_SCF=1e-06 energy=-670.0285278738296 units=gap_units Integrated_spin_density=1.924e-05 opt_dir=/home/tks32/dft_pbe/apr_8_opt_fragments_subset/singlepoint_5_CH3OH time=15.0 free_energy=-670.0285278738296 cutoff=8.0 nneightol=1.2 pbc="T T T"
C       -0.68553897       0.31736751      -0.04678481      -0.27182460       0.42681446       0.54816654      -0.47926758      -0.25828440       0.11536611
O        0.11521847      -0.85360512      -0.34053499       1.49731807      -0.81646626      -0.44068703       0.34269662       0.38673379      -0.14944830
H       -1.77184385       0.05632598       0.05844715       0.06078057       0.06391883       0.03492908       0.37643111       0.05692956      -0.02178612
H        0.54694913      -1.19404591       0.46130104      -0.61128966       0.12496229       0.17247520      -0.13045047      -0.16808473       0.31874959
H       -0.38243623       0.89071135       0.85833588      -0.04710026       0.30241912      -0.27294023      -0.11050975      -0.01418267       0.07711506
H       -0.59747043       0.99522410      -0.90814779      -0.25533303       0.00301973       0.11413787      -0.19929969       0.18770590      -0.23528503
H        2.77512187      -0.21197790      -0.08261649      -0.37255110      -0.10466817      -0.15608142       0.20039976      -0.19081745      -0.10471132
7
Lattice="13.0 0.0 0.0 0.0 9.0 0.0 0.0 0.0 9.0" Properties=species:S:1:pos:R:3:momenta:R:3:forces:R:3 EPS_SCF=1e-06 energy=-670.029223292364 units=gap_units Integrated_spin_density=1.924e-05 opt_dir=/home/tks32/dft_pbe/apr_8_opt_fragments_subset/singlepoint_5_CH3OH time=15.0 free_energy=-670.029223292364 cutoff=8.0 nneightol=1.2 pbc="T T T"
C       -0.68583851       0.31720609      -0.04671270      -0.27182460       0.42681446       0.54816654      -0.45724035      -0.24239830       0.10644261
O        0.11543266      -0.85336342      -0.34062840       1.49731807      -0.81646626      -0.44068703       0.34649836       0.38184214      -0.13997671
H       -1.77160858       0.05636156       0.05843353       0.06078057       0.06391883       0.03492908       0.36026703       0.05108794      -0.02030110
H        0.54686760      -1.19415096       0.46150026      -0.61128966       0.12496229       0.17247520      -0.13534291      -0.16487374       0.30985416
H       -0.38250530       0.89070249       0.85838407      -0.04710026       0.30241912      -0.27294023      -0.11278621      -0.01553117       0.07466978
H       -0.59759499       0.99534142      -0.90829484      -0.25533303       0.00301973       0.11413787      -0.20163753       0.18098686      -0.22584848
H        2.77524712      -0.21209716      -0.08268194      -0.37255110      -0.10466817      -0.15608142       0.20024162      -0.19111374      -0.10484027
7
Lattice="13.0 0.0 0.0 0.0 9.0 0.0 0.0 0.0 9.0" Properties=species:S:1:pos:R:3:momenta:R:3:forces:R:3 EPS_SCF=1e-06 energy=-670.030542521358 units=gap_units Integrated_spin_density=1.924e-05 opt_dir=/home/tks32/dft_pbe/apr_8_opt_fragments_subset/singlepoint_5_CH3OH time=15.0 free_energy=-670.030542521358 cutoff=8.0 nneightol=1.2 pbc="T T T"
C       -0.68642322       0.31689375      -0.04657445      -0.27182460       0.42681446       0.54816654      -0.41405432      -0.21152568       0.08918151
O        0.11586422      -0.85288272      -0.34080893       1.49731807      -0.81646626      -0.44068703       0.35381762       0.37238146      -0.12161997
H       -1.77114855       0.05642879       0.05840728       0.06078057       0.06391883       0.03492908       0.32855568       0.03962044      -0.01741419
H        0.54670094      -1.19435913       0.46189310      -0.61128966       0.12496229       0.17247520      -0.14482354      -0.15861963       0.29258980
H       -0.38264519       0.89068381       0.85847891      -0.04710026       0.30241912      -0.27294023      -0.11723328      -0.01810139       0.06989427
H       -0.59784606       0.99557173      -0.90858284      -0.25533303       0.00301973       0.11413787      -0.20618047       0.16795341      -0.20753635
H        2.77549785      -0.21233621      -0.08281309      -0.37255110      -0.10466817      -0.15608142       0.19991831      -0.19170862      -0.10509507
7
Lattice="13.0 0.0 0.0 0.0 9.0 0.0 0.0 0.0 9.0" Properties=species:S:1:pos:R:3:momenta:R:3:forces:R:3 EPS_SCF=1e-06 energy=-670.0323570358212 units=gap_units Integrated_spin_density=1.924e-05 opt_dir=/home/tks32/dft_pbe/apr_8_opt_fragments_subset/singlepoint_5_CH3OH time=15.0 free_energy=-670.0323570358212 cutoff=8.0 nneightol=1.2 pbc="T T T"
C       -0.68726345       0.31645223      -0.04638239      -0.27182460       0.42681446       0.54816654      -0.35156649      -0.16750701       0.06476714
O        0.11652095      -0.85216770      -0.34106364       1.49731807      -0.81646626      -0.44068703       0.36408469       0.35901547      -0.09558685
H       -1.77048536       0.05651934       0.05837046       0.06078057       0.06391883       0.03492908       0.28262432       0.02297981      -0.01330068
H        0.54644113      -1.19466678       0.46246854      -0.61128966       0.12496229       0.17247520      -0.15827593      -0.14966947       0.26803861
H       -0.38285999       0.89065327       0.85861727      -0.04710026       0.30241912      -0.27294023      -0.12362943      -0.02162808       0.06302529
H       -0.59822838       0.99590638      -0.90899942      -0.25533303       0.00301973       0.11413787      -0.21265116       0.14941766      -0.18147376
H        2.77587511      -0.21269673      -0.08301083      -0.37255110      -0.10466817      -0.15608142       0.19941401      -0.19260838      -0.10546976
7
Lattice="13.0 0.0 0.0 0.0 9.0 0.0 0.0 0.0 9.0" Properties=species:S:1:pos:R:3:momenta:R:3:forces:R:3 EPS_SCF=1e-06 energy=-670.0345092866745 units=gap_units Integrated_spin_density=1.924e-05 opt_dir=/home/tks32/dft_pbe/apr_8_opt_fragments_subset/singlepoint_5_CH3OH time=15.0 free_energy=-670.0345092866745 cutoff=8.0 nneightol=1.2 pbc="T T T"
C       -0.68831339       0.31591491      -0.04615543      -0.27182460       0.42681446       0.54816654      -0.27279879      -0.11315224       0.03497770
O        0.11741619      -0.85122423      -0.34137274       1.49731807      -0.81646626      -0.44068703       0.37646578       0.34275218      -0.06371935
H       -1.76965237       0.05662004       0.05832620       0.06078057       0.06391883       0.03492908       0.22464796       0.00188597      -0.00823764
H        0.54607506      -1.19506871       0.46321039      -0.61128966       0.12496229       0.17247520      -0.17477820      -0.13855572       0.23784486
H       -0.38315661       0.89060771       0.85879445      -0.04710026       0.30241912      -0.27294023      -0.13162485      -0.02569875       0.05442925
H       -0.59875013       0.99633241      -0.90952596      -0.25533303       0.00301973       0.11413787      -0.22061395       0.12659319      -0.14933920
H        2.77638126      -0.21318212      -0.08327691      -0.37255110      -0.10466817      -0.15608142       0.19870205      -0.19382463      -0.10595562
7
Lattice="13.0 0.0 0.0 0.0 9.0 0.0 0.0 0.0 9.0" Properties=species:S:1:pos:R:3:momenta:R:3:forces:R:3 EPS_SCF=1e-06 energy=-670.0368499321694 units=gap_units Integrated_spin_density=1.924e-05 opt_dir=/home/tks32/dft_pbe/apr_8_opt_fragments_subset/singlepoint_5_CH3OH time=15.0 free_energy=-670.0368499321694 cutoff=8.0 nneightol=1.2 pbc="T T T"
C       -0.68950973       0.31532706      -0.04591893      -0.27182460       0.42681446       0.54816654      -0.18217909      -0.05225498       0.00215240
O        0.11856883      -0.85005925      -0.34170965       1.49731807      -0.81646626      -0.44068703       0.38990493       0.32493427      -0.02848303
H       -1.76869565       0.05671241       0.05827878       0.06078057       0.06391883       0.03492908       0.15783734      -0.02262999      -0.00261431
H        0.54558453      -1.19555813       0.46409722      -0.61128966       0.12496229       0.17247520      -0.19312061      -0.12599962       0.20420410
H       -0.38354486       0.89054303       0.85900407      -0.04710026       0.30241912      -0.27294023      -0.14072449      -0.02974853       0.04461389
H       -0.59942301       0.99683249      -0.91013747      -0.25533303       0.00301973       0.11413787      -0.22946093       0.10107325      -0.11333215
H        2.77701989      -0.21379759      -0.08361402      -0.37255110      -0.10466817      -0.15608142       0.19774284      -0.19537438      -0.10654091
7
Lattice="13.0 0.0 0.0 0.0 9.0 0.0 0.0 0.0 9.0" Properties=species:S:1:pos:R:3:momenta:R:3:forces:R:3 EPS_SCF=1e-06 energy=-670.0392775090742 units=gap_units Integrated_spin_density=1.924e-05 opt_dir=/home/tks32/dft_pbe/apr_8_opt_fragments_subset/singlepoint_5_CH3OH time=15.0 free_energy=-670.0392775090742 cutoff=8.0 nneightol=1.2 pbc="T T T"
C       -0.69077075       0.31474512      -0.04570390      -0.27182460       0.42681446       0.54816654      -0.08576725       0.01044797      -0.03088686
O        0.12000070      -0.84868201      -0.34204169       1.49731807      -0.81646626      -0.44068703       0.40319740       0.30719651       0.00710032
H       -1.76767491       0.05677264       0.05823345       0.06078057       0.06391883       0.03492908       0.08661713      -0.04918077       0.00306400
H        0.54494766      -1.19612609       0.46510198      -0.61128966       0.12496229       0.17247520      -0.21184774      -0.11290222       0.16980448
H       -0.38403666       0.89045471       0.85923786      -0.04710026       0.30241912      -0.27294023      -0.15027507      -0.03307117       0.03423802
H       -0.60026077       0.99738482      -0.91080249      -0.25533303       0.00301973       0.11413787      -0.23840826       0.07478673      -0.07611011
H        2.77779474      -0.21454919      -0.08402522      -0.37255110      -0.10466817      -0.15608142       0.19648379      -0.19727704      -0.10720986
7
Lattice="13.0 0.0 0.0 0.0 9.0 0.0 0.0 0.0 9.0" Properties=species:S:1:pos:R:3:momenta:R:3:forces:R:3 EPS_SCF=1e-06 energy=-670.0417690169667 units=gap_units Integrated_spin_density=1.924e-05 opt_dir=/home/tks32/dft_pbe/apr_8_opt_fragments_subset/singlepoint_5_CH3OH time=15.0 free_energy=-670.0417690169667 cutoff=8.0 nneightol=1.2 pbc="T T T"
C       -0.69199941       0.31423279      -0.04554414      -0.27182460       0.42681446       0.54816654       0.00885272       0.06956195      -0.06106033
O        0.12173002      -0.84710677      -0.34233276       1.49731807      -0.81646626      -0.44068703       0.41513038       0.29132719       0.03969851
H       -1.76666159       0.05677310       0.05819601       0.06078057       0.06391883       0.03492908       0.01655750      -0.07604274       0.00820262
H        0.54414296      -1.19676064       0.46619184      -0.61128966       0.12496229       0.17247520      -0.22937891      -0.10028692       0.13761498
H       -0.38464352       0.89033909       0.85948570      -0.04710026       0.30241912      -0.27294023      -0.15948727      -0.03487831       0.02409018
H       -0.60127529       0.99796365      -0.91148419      -0.25533303       0.00301973       0.11413787      -0.24653960       0.04986501      -0.04060421
H        2.77870683      -0.21544122      -0.08451246      -0.37255110      -0.10466817      -0.15608142       0.19486518      -0.19954618      -0.10794175
7
Lattice="13.0 0.0 0.0 0.0 9.0 0.0 0.0 0.0 9.0" Properties=species:S:1:pos:R:3:momenta:R:3:forces:R:3 EPS_SCF=1e-06 energy=-670.0446726668912 units=gap_units Integrated_spin_density=1.924e-05 opt_dir=/home/tks32/dft_pbe/apr_8_opt_fragments_subset/singlepoint_5_CH3OH time=15.0 free_energy=-670.0446726668912 cutoff=8.0 nneightol=1.2 pbc="T T T"
C       -0.69320398       0.31381831      -0.04546736      -0.27182460       0.42681446       0.54816654       0.10187669       0.12461404      -0.08777142
O        0.12399543      -0.84515894      -0.34256800       1.49731807      -0.81646626      -0.44068703       0.42559647       0.27786251       0.06868920
H       -1.76563632       0.05667219       0.05816987       0.06078057       0.06391883       0.03492908      -0.05253348      -0.10393986       0.01256160
H        0.54304054      -1.19752253       0.46745424      -0.61128966       0.12496229       0.17247520      -0.24568682      -0.08804772       0.10779899
H       -0.38545691       0.89017813       0.85976317      -0.04710026       0.30241912      -0.27294023      -0.16832364      -0.03425966       0.01408835
H       -0.60260832       0.99860317      -0.91221320      -0.25533303       0.00301973       0.11413787      -0.25351728       0.02625063      -0.00657278
H        2.77986956      -0.21659033      -0.08513873      -0.37255110      -0.10466817      -0.15608142       0.19258805      -0.20247993      -0.10879394
7
Lattice="13.0 0.0 0.0 0.0 9.0 0.0 0.0 0.0 9.0" Properties=species:S:1:pos:R:3:momenta:R:3:forces:R:3 EPS_SCF=1e-06 energy=-670.0482359706472 units=gap_units Integrated_spin_density=1.924e-05 opt_dir=/home/tks32/dft_pbe/apr_8_opt_fragments_subset/singlepoint_5_CH3OH time=15.0 free_energy=-670.0482359706472 cutoff=8.0 nneightol=1.2 pbc="T T T"
C       -0.69423658       0.31360476      -0.04553019      -0.27182460       0.42681446       0.54816654       0.18100831       0.16754145      -0.10657084
O        0.12691431      -0.84278864      -0.34269243       1.49731807      -0.81646626      -0.44068703       0.43322095       0.26939030       0.08943471
H       -1.76470333       0.05640767       0.05816385       0.06078057       0.06391883       0.03492908      -0.11159219      -0.13036863       0.01514683
H        0.54155906      -1.19841700       0.46887603      -0.61128966       0.12496229       0.17247520      -0.25867733      -0.07755714       0.08433172
H       -0.38652948       0.88996437       0.86006047      -0.04710026       0.30241912      -0.27294023      -0.17553802      -0.02972770       0.00543983
H       -0.60433075       0.99927854      -0.91294613      -0.25533303       0.00301973       0.11413787      -0.25782669       0.00693237       0.02196592
H        2.78132677      -0.21804970      -0.08593161      -0.37255110      -0.10466817      -0.15608142       0.18940497      -0.20621065      -0.10974817
7
Lattice="13.0 0.0 0.0 0.0 9.0 0.0 0.0 0.0 9.0" Properties=species:S:1:pos:R:3:momenta:R:3:forces:R:3 EPS_SCF=1e-06 energy=-670.0528381179291 units=gap_units Integrated_spin_density=1.924e-05 opt_dir=/home/tks32/dft_pbe/apr_8_opt_fragments_subset/singlepoint_5_CH3OH time=15.0 free_energy=-670.0528381179291 cutoff=8.0 nneightol=1.2 pbc="T T T"
C       -0.69492403       0.31370488      -0.04579099      -0.27182460       0.42681446       0.54816654       0.23147924       0.18941232      -0.11278659
O        0.13061713      -0.83993520      -0.34264934       1.49731807      -0.81646626      -0.44068703       0.43696824       0.26853796       0.09731495
H       -1.76398543       0.05590243       0.05818608       0.06078057       0.06391883       0.03492908      -0.14965584      -0.15227115       0.01484686
H        0.53960744      -1.19944891       0.47044376      -0.61128966       0.12496229       0.17247520      -0.26629065      -0.07026229       0.07115580
H       -0.38792056       0.88969693       0.86036557      -0.04710026       0.30241912      -0.27294023      -0.17971735      -0.01968705      -0.00044659
H       -0.60651984       0.99996155      -0.91363242      -0.25533303       0.00301973       0.11413787      -0.25777044      -0.00484691       0.04068765
H        2.78312530      -0.21988168      -0.08692268      -0.37255110      -0.10466817      -0.15608142       0.18498680      -0.21088288      -0.11077207
7
Lattice="13.0 0.0 0.0 0.0 9.0 0.0 0.0 0.0 9.0" Properties=species:S:1:pos:R:3:momenta:R:3:forces:R:3 EPS_SCF=1e-06 energy=-670.0589061823215 units=gap_units Integrated_spin_density=1.924e-05 opt_dir=/home/tks32/dft_pbe/apr_8_opt_fragments_subset/singlepoint_5_CH3OH time=15.0 free_energy=-670.0589061823215 cutoff=8.0 nneightol=1.2 pbc="T T T"
C       -0.69509567       0.31422261      -0.04629910      -0.27182460       0.42681446       0.54816654       0.23861038       0.18200103      -0.10238118
O        0.13526001      -0.83650794      -0.34239164       1.49731807      -0.81646626      -0.44068703       0.43658365       0.27741199       0.08888887
H       -1.76360287       0.05506433       0.05824095       0.06078057       0.06391883       0.03492908      -0.15583119      -0.16663057       0.01057587
H        0.53708089      -1.20062903       0.47215807      -0.61128966       0.12496229       0.17247520      -0.26700853      -0.06735229       0.07114462
H       -0.38969915       0.88938781       0.86066764      -0.04710026       0.30241912      -0.27294023      -0.17947400      -0.00261964      -0.00214220
H       -0.60926345       1.00062926      -0.91422424      -0.25533303       0.00301973       0.11413787      -0.25176509      -0.00614353       0.04573494
H        2.78532025      -0.22216702      -0.08815169      -0.37255110      -0.10466817      -0.15608142       0.17888476      -0.21666699      -0.11182093
7
Lattice="13.0 0.0 0.0 0.0 9.0 0.0 0.0 0.0 9.0" Properties=species:S:1:pos:R:3:momenta:R:3:forces:R:3 EPS_SCF=1e-06 energy=-670.0667635712156 units=gap_units Integrated_spin_density=1.924e-05 opt_dir=/home/tks32/dft_pbe/apr_8_opt_fragments_subset/singlepoint_5_CH3OH time=15.0 free_energy=-670.0667635712156 cutoff=8.0 nneightol=1.2 pbc="T T T"
C       -0.69462941       0.31522323      -0.04707762      -0.27182460       0.42681446       0.54816654       0.19213973       0.14035583      -0.07329658
O        0.14104197      -0.83235960      -0.34189812       1.49731807      -0.81646626      -0.44068703       0.43309790       0.29674320       0.06365532
H       -1.76363843       0.05378619       0.05832374       0.06078057       0.06391883       0.03492908      -0.12245396      -0.17138018       0.00161466
H        0.53385593      -1.20198226       0.47405258      -0.61128966       0.12496229       0.17247520      -0.26050951      -0.06923865       0.08455929
H       -0.39194674       0.88907345       0.86096227      -0.04710026       0.30241912      -0.27294023      -0.17431285       0.02262300       0.00150733
H       -0.61266356       1.00127678      -0.91469063      -0.25533303       0.00301973       0.11413787      -0.23881812       0.00480658       0.03491420
H        2.78798026      -0.22501778      -0.08967223      -0.37255110      -0.10466817      -0.15608142       0.17085681      -0.22390978      -0.11295423
7
Lattice="13.0 0.0 0.0 0.0 9.0 0.0 0.0 0.0 9.0" Properties=species:S:1:pos:R:3:momenta:R:3:forces:R:3 EPS_SCF=1e-06 energy=-670.0765391736251 units=gap_units Integrated_spin_density=1.924e-05 opt_dir=/home/tks32/dft_pbe/apr_8_opt_fragments_subset/singlepoint_5_CH3OH time=15.0 free_energy=-670.0765391736251 cutoff=8.0 nneightol=1.2 pbc="T T T"
C       -0.69353224       0.31668168      -0.04809406      -0.27182460       0.42681446       0.54816654       0.09317876       0.06729334      -0.02779747
O        0.14822425      -0.82725266      -0.34119715       1.49731807      -0.81646626      -0.44068703       0.42932475       0.32449847       0.02682433
H       -1.76407729       0.05194927       0.05841147       0.06078057       0.06391883       0.03492908      -0.05013199      -0.16694491      -0.01182658
H        0.52978750      -1.20355738       0.47621696      -0.61128966       0.12496229       0.17247520      -0.24850676      -0.07469612       0.10666526
H       -0.39475830       0.88883507       0.86126052      -0.04710026       0.30241912      -0.27294023      -0.16664078       0.05646397       0.01098316
H       -0.61683486       1.00193716      -0.91503983      -0.25533303       0.00301973       0.11413787      -0.21932012       0.02697607       0.00984421
H        2.79119095      -0.22859313      -0.09155793      -0.37255110      -0.10466817      -0.15608142       0.16209615      -0.23359083      -0.11469290
7
Lattice="13.0 0.0 0.0 0.0 9.0 0.0 0.0 0.0 9.0" Properties=species:S:1:pos:R:3:momenta:R:3:forces:R:3 EPS_SCF=1e-06 energy=-670.08832991938 units=gap_units Integrated_spin_density=1.924e-05 opt_dir=/home/tks32/dft_pbe/apr_8_opt_fragments_subset/singlepoint_5_CH3OH time=15.0 free_energy=-670.08832991938 cutoff=8.0 nneightol=1.2 pbc="T T T"
C       -0.69205736       0.31841054      -0.04922071      -0.27182460       0.42681446       0.54816654      -0.03686327      -0.02029887       0.02428943
O        0.15713926      -0.82083492      -0.34038881       1.49731807      -0.81646626      -0.44068703       0.42987009       0.35420492      -0.00745898
H       -1.76471991       0.04943517       0.05845045       0.06078057       0.06391883       0.03492908       0.04595368      -0.15833095      -0.02788809
H        0.52471579      -1.20543281       0.47881048      -0.61128966       0.12496229       0.17247520      -0.23534038      -0.07981003       0.12507034
H       -0.39824233       0.88882880       0.86160268      -0.04710026       0.30241912      -0.27294023      -0.15729875       0.09550488       0.02332429