7
Lattice="13.0 0.0 0.0 0.0 9.0 0.0 0.0 0.0 9.0" Properties=species:S:1:pos:R:3:momenta:R:3:forces:R:3 EPS_SCF=1e-06 energy=-670.3981954528476 units=gap_units Integrated_spin_density=1.924e-05 opt_dir=/home/tks32/dft_pbe/apr_8_opt_fragments_subset/singlepoint_5_CH3OH time=65.0 free_energy=-670.3981954528476 cutoff=8.0 nneightol=1.2 pbc="T T T"
C       -0.77905358       0.24816014      -0.01033088       0.13937078       0.28293765       0.35801848      -0.37560862       0.55654633       0.15272238
O        0.36484295      -0.56034422       0.30932765      -0.64783592      -1.07196648      -0.74648650       0.70006296      -0.09703989      -0.83276511
H       -1.56763892      -0.35455535      -0.47955857       0.32858484       0.21780414      -0.20897924       0.12150438      -0.21902952      -0.01573641
H        1.11751905       0.04129044       0.47679781       0.51535472       0.76365141       0.52207908       0.30864533      -0.10512391       0.30130066
H       -1.22091364       0.64868678       0.91908897      -0.06985379      -0.04467801      -0.27256086       0.00479619       0.13991921      -0.11331076
H       -0.59134392       1.10364536      -0.71300611      -0.00848583      -0.20549672       0.06589766      -0.18938227      -0.32775902       0.21449927
H        2.67658807      -1.12688315      -0.50231887      -0.25713481       0.05774801       0.28203139      -0.57001797       0.05248681       0.29328997
7
Lattice="13.0 0.0 0.0 0.0 9.0 0.0 0.0 0.0 9.0" Properties=species:S:1:pos:R:3:momenta:R:3:forces:R:3 EPS_SCF=1e-06 energy=-670.4206763155446 units=gap_units Integrated_spin_density=1.924e-05 opt_dir=/home/tks32/dft_pbe/apr_8_opt_fragments_subset/singlepoint_5_CH3OH time=65.0 free_energy=-670.4206763155446 cutoff=8.0 nneightol=1.2 pbc="T T T"
C       -0.78280967       0.25372560      -0.00880366       0.13937078       0.28293765       0.35801848      -0.11124860       0.14066889       0.07338485
O        0.37184358      -0.56131462       0.30100000      -0.64783592      -1.07196648      -0.74648650       0.46217576       0.01220233      -0.82772033
H       -1.56642388      -0.35674565      -0.47971593       0.32858484       0.21780414      -0.20897924       0.14306917      -0.15716115       0.02401106
H        1.12060550       0.04023920       0.47981082       0.51535472       0.76365141       0.52207908       0.31267917      -0.07601200       0.29704062
H       -1.22086568       0.65008597       0.91795586      -0.06985379      -0.04467801      -0.27256086      -0.04171381       0.18618005       0.03075838
H       -0.59323774       1.10036777      -0.71086112      -0.00848583      -0.20549672       0.06589766      -0.20085465      -0.15794793       0.11025741
H        2.67088789      -1.12635828      -0.49938597      -0.25713481       0.05774801       0.28203139      -0.56410703       0.05206982       0.29226800
7
Lattice="13.0 0.0 0.0 0.0 9.0 0.0 0.0 0.0 9.0" Properties=species:S:1:pos:R:3:momenta:R:3:forces:R:3 EPS_SCF=1e-06 energy=-670.4514181263256 units=gap_units Integrated_spin_density=1.924e-05 opt_dir=/home/tks32/dft_pbe/apr_8_opt_fragments_subset/singlepoint_5_CH3OH time=65.0 free_energy=-670.4514181263256 cutoff=8.0 nneightol=1.2 pbc="T T T"
C       -0.78743942       0.26031417      -0.00660508       0.13937078       0.28293765       0.35801848       0.21438460      -0.36013233      -0.01655856
O        0.38333418      -0.56205095       0.28421018      -0.64783592      -1.07196648      -0.74648650       0.18469931       0.15885683      -0.77733978
H       -1.56372373      -0.36048176      -0.47958793       0.32858484       0.21780414      -0.20897924       0.16346410      -0.08570137       0.07620171
H        1.12689456       0.03843950       0.48585816       0.51535472       0.76365141       0.52207908       0.28028590      -0.06123701       0.28045183
H       -1.22129094       0.65343596       0.91728147      -0.06985379      -0.04467801      -0.27256086      -0.06712837       0.21078084       0.18989027
H       -0.59719769       1.09564425      -0.70769248      -0.00848583      -0.20549672       0.06589766      -0.21817569       0.08274773      -0.04266844
H        2.65942306      -1.12530118      -0.49346432      -0.25713481       0.05774801       0.28203139      -0.55752986       0.05468531       0.29002299
7
Lattice="13.0 0.0 0.0 0.0 9.0 0.0 0.0 0.0 9.0" Properties=species:S:1:pos:R:3:momenta:R:3:forces:R:3 EPS_SCF=1e-06 energy=-670.4897819763594 units=gap_units Integrated_spin_density=1.924e-05 opt_dir=/home/tks32/dft_pbe/apr_8_opt_fragments_subset/singlepoint_5_CH3OH time=65.0 free_energy=-670.4897819763594 cutoff=8.0 nneightol=1.2 pbc="T T T"
C       -0.78897618       0.26182588      -0.00482949       0.13937078       0.28293765       0.35801848       0.38780920      -0.49636236      -0.02871868
O        0.39594155      -0.56076484       0.25956317      -0.64783592      -1.07196648      -0.74648650       0.07538522       0.26609752      -0.64900336
H       -1.55928827      -0.36489562      -0.47853790       0.32858484       0.21780414      -0.20897924       0.15488487      -0.07640168       0.10401204
H        1.13599318       0.03606854       0.49474127       0.51535472       0.76365141       0.52207908       0.16763813      -0.10424540       0.23659098
H       -1.22249719       0.65903676       0.91900403      -0.06985379      -0.04467801      -0.27256086       0.02152396       0.12085685       0.18224065
H       -0.60343816       1.09240821      -0.70536415      -0.00848583      -0.20549672       0.06589766      -0.24339336       0.22365580      -0.13324852
H        2.64226509      -1.12367892      -0.48457692      -0.25713481       0.05774801       0.28203139      -0.56384802       0.06639927       0.28812688
7
Lattice="13.0 0.0 0.0 0.0 9.0 0.0 0.0 0.0 9.0" Properties=species:S:1:pos:R:3:momenta:R:3:forces:R:3 EPS_SCF=1e-06 energy=-670.5369035635857 units=gap_units Integrated_spin_density=1.924e-05 opt_dir=/home/tks32/dft_pbe/apr_8_opt_fragments_subset/singlepoint_5_CH3OH time=65.0 free_energy=-670.5369035635857 cutoff=8.0 nneightol=1.2 pbc="T T T"
C       -0.78531787       0.25673386      -0.00360479       0.13937078       0.28293765       0.35801848       0.34844442      -0.15672629      -0.00870267
O        0.40826817      -0.55614815       0.22894400      -0.64783592      -1.07196648      -0.74648650       0.15317469       0.28585967      -0.45667846
H       -1.55328291      -0.36986130      -0.47624075       0.32858484       0.21780414      -0.20897924       0.13427249      -0.13455138       0.10820627
H        1.14636118       0.03257951       0.50581167       0.51535472       0.76365141       0.52207908       0.00771378      -0.18075880       0.16565922
H       -1.22330300       0.66564857       0.92292341      -0.06985379      -0.04467801      -0.27256086       0.21327376      -0.08194157       0.00725444
H       -0.61221863       1.09240324      -0.70500085      -0.00848583      -0.20549672       0.06589766      -0.27389322       0.18350730      -0.10005053
H        2.61949307      -1.12135572      -0.47283269      -0.25713481       0.05774801       0.28203139      -0.58298593       0.08461107       0.28431174
7
Lattice="13.0 0.0 0.0 0.0 9.0 0.0 0.0 0.0 9.0" Properties=species:S:1:pos:R:3:momenta:R:3:forces:R:3 EPS_SCF=1e-06 energy=-670.5856232500875 units=gap_units Integrated_spin_density=1.924e-05 opt_dir=/home/tks32/dft_pbe/apr_8_opt_fragments_subset/singlepoint_5_CH3OH time=65.0 free_energy=-670.5856232500875 cutoff=8.0 nneightol=1.2 pbc="T T T"
C       -0.77700776       0.24989417      -0.00262789       0.13937078       0.28293765       0.35801848       0.14105532       0.30891139      -0.08115614
O        0.42156786      -0.54787673       0.19481055      -0.64783592      -1.07196648      -0.74648650       0.27555130       0.20360680      -0.26464700
H       -1.54594454      -0.37626796      -0.47261514       0.32858484       0.21780414      -0.20897924       0.16591023      -0.17962202       0.12935724
H        1.15580346       0.02683645       0.51816055       0.51535472       0.76365141       0.52207908      -0.08873124      -0.21279528       0.10149029
H       -1.22095708       0.67041924       0.92655532      -0.06985379      -0.04467801      -0.27256086       0.41198612      -0.29256861      -0.15687734
H       -0.62406513       1.09504128      -0.70611461      -0.00848583      -0.20549672       0.06589766      -0.28655712       0.06458217      -0.00999279
H        2.59060320      -1.11804644      -0.45816878      -0.25713481       0.05774801       0.28203139      -0.61921461       0.10788556       0.28182574
7
Lattice="13.0 0.0 0.0 0.0 9.0 0.0 0.0 0.0 9.0" Properties=species:S:1:pos:R:3:momenta:R:3:forces:R:3 EPS_SCF=1e-06 energy=-670.6412187656497 units=gap_units Integrated_spin_density=1.924e-05 opt_dir=/home/tks32/dft_pbe/apr_8_opt_fragments_subset/singlepoint_5_CH3OH time=65.0 free_energy=-670.6412187656497 cutoff=8.0 nneightol=1.2 pbc="T T T"
C       -0.76741996       0.24835651      -0.00296191       0.13937078       0.28293765       0.35801848      -0.05597383       0.42427824      -0.23226881
O        0.43765692      -0.53738864       0.16013411      -0.64783592      -1.07196648      -0.74648650       0.28331026       0.10276081      -0.15496736
H       -1.53685974      -0.38471921      -0.46741827       0.32858484       0.21780414      -0.20897924       0.25747525      -0.14970588       0.17579357
H        1.16297502       0.01848651       0.53079176       0.51535472       0.76365141       0.52207908      -0.05692342      -0.16996273       0.07813016
H       -1.21268677       0.67033909       0.92747880      -0.06985379      -0.04467801      -0.27256086       0.50402376      -0.38739538      -0.15554898
H       -0.63901086       1.09838098      -0.70726638      -0.00848583      -0.20549672       0.06589766      -0.26504935       0.04972571       0.00440413
H        2.55534539      -1.11345525      -0.44075811      -0.25713481       0.05774801       0.28203139      -0.66686266       0.13029922       0.28445729
7
Lattice="13.0 0.0 0.0 0.0 9.0 0.0 0.0 0.0 9.0" Properties=species:S:1:pos:R:3:momenta:R:3:forces:R:3 EPS_SCF=1e-06 energy=-670.7125313013815 units=gap_units Integrated_spin_density=1.924e-05 opt_dir=/home/tks32/dft_pbe/apr_8_opt_fragments_subset/singlepoint_5_CH3OH time=65.0 free_energy=-670.7125313013815 cutoff=8.0 nneightol=1.2 pbc="T T T"
C       -0.75963470       0.25336831      -0.00676382       0.13937078       0.28293765       0.35801848      -0.04062834       0.13805199      -0.31310146
O        0.45640778      -0.52640031       0.12658929      -0.64783592      -1.07196648      -0.74648650       0.20447359       0.07385599      -0.14856547
H       -1.52480216      -0.39458204      -0.46009112       0.32858484       0.21780414      -0.20897924       0.30093729      -0.09617831       0.18938482
H        1.16857135       0.00840950       0.54333761       0.51535472       0.76365141       0.52207908       0.03202902      -0.10119176       0.08062721
H       -1.19764570       0.66442725       0.92596515      -0.06985379      -0.04467801      -0.27256086       0.47446236      -0.35496248      -0.01471170
H       -0.65645744       1.10213630      -0.70823659      -0.00848583      -0.20549672       0.06589766      -0.22088814       0.18042486      -0.09615831
H        2.51356088      -1.10735901      -0.42080051      -0.25713481       0.05774801       0.28203139      -0.75038578       0.15999972       0.30252490
7
Lattice="13.0 0.0 0.0 0.0 9.0 0.0 0.0 0.0 9.0" Properties=species:S:1:pos:R:3:momenta:R:3:forces:R:3 EPS_SCF=1e-06 energy=-670.8123810925905 units=gap_units Integrated_spin_density=1.924e-05 opt_dir=/home/tks32/dft_pbe/apr_8_opt_fragments_subset/singlepoint_5_CH3OH time=65.0 free_energy=-670.8123810925905 cutoff=8.0 nneightol=1.2 pbc="T T T"
C       -0.75268138       0.26089230      -0.01633903       0.13937078       0.28293765       0.35801848       0.19894767      -0.21413800      -0.22152759
O        0.47876626      -0.51415106       0.09062247      -0.64783592      -1.07196648      -0.74648650       0.21140084       0.11892393      -0.19119443
H       -1.50727962      -0.40613136      -0.44932217       0.32858484       0.21780414      -0.20897924       0.15933964      -0.10984347       0.10942729
H        1.17470619      -0.00344491       0.55725448       0.51535472       0.76365141       0.52207908       0.06767073      -0.06160460       0.05992249
H       -1.17394879       0.65198626       0.92419358      -0.06985379      -0.04467801      -0.27256086       0.41518563      -0.28334702       0.13031266
H       -0.67782935       1.10920283      -0.71098184      -0.00848583      -0.20549672       0.06589766      -0.15866477       0.33210297      -0.23162457
H        2.45826670      -1.09835406      -0.39542749      -0.25713481       0.05774801       0.28203139      -0.89387974       0.21790618       0.34468415
7
Lattice="13.0 0.0 0.0 0.0 9.0 0.0 0.0 0.0 9.0" Properties=species:S:1:pos:R:3:momenta:R:3:forces:R:3 EPS_SCF=1e-06 energy=-670.9490453897342 units=gap_units Integrated_spin_density=1.924e-05 opt_dir=/home/tks32/dft_pbe/apr_8_opt_fragments_subset/singlepoint_5_CH3OH time=65.0 free_energy=-670.9490453897342 cutoff=8.0 nneightol=1.2 pbc="T T T"
C       -0.74138980       0.26361321      -0.03072856       0.13937078       0.28293765       0.35801848       0.24366278      -0.06347872      -0.08266618
O        0.50560132      -0.49938058       0.05074709      -0.64783592      -1.07196648      -0.74648650       0.39929934       0.17433262      -0.15839526
H       -1.48638890      -0.42000731      -0.43622885       0.32858484       0.21780414      -0.20897924      -0.14514932      -0.19005755      -0.03213596
H        1.18228311      -0.01655632       0.57237280       0.51535472       0.76365141       0.52207908      -0.02036399      -0.04865416       0.00641383
H       -1.14128008       0.63338918       0.92531991      -0.06985379      -0.04467801      -0.27256086       0.44107629      -0.28362892       0.10590688
H       -0.70252026       1.12355163      -0.71882552      -0.00848583      -0.20549672       0.06589766      -0.05114259       0.18669862      -0.17002498
H        2.38369461      -1.08460980      -0.36265687      -0.25713481       0.05774801       0.28203139      -0.86738252       0.22478810       0.33090166
7
Lattice="13.0 0.0 0.0 0.0 9.0 0.0 0.0 0.0 9.0" Properties=species:S:1:pos:R:3:momenta:R:3:forces:R:3 EPS_SCF=1e-06 energy=-671.0579574116102 units=gap_units Integrated_spin_density=1.924e-05 opt_dir=/home/tks32/dft_pbe/apr_8_opt_fragments_subset/singlepoint_5_CH3OH time=65.0 free_energy=-671.0579574116102 cutoff=8.0 nneightol=1.2 pbc="T T T"
C       -0.72348807       0.26456783      -0.04727820       0.13937078       0.28293765       0.35801848      -0.22528804       0.20892854      -0.15796643
O        0.54320359      -0.47993303       0.00682886      -0.64783592      -1.07196648      -0.74648650       0.13921585       0.26150569       0.00869527
H       -1.46965154      -0.43899960      -0.42412122       0.32858484       0.21780414      -0.20897924      -0.24925234      -0.07354166      -0.09216873
H        1.18924104      -0.03090284       0.58754935       0.51535472       0.76365141       0.52207908      -0.05729104       0.06452375       0.07201559
H       -1.09674127       0.60714034       0.92934884      -0.06985379      -0.04467801      -0.27256086       0.31425013      -0.18093343       0.06949089
H       -0.72842422       1.14292073      -0.73128195      -0.00848583      -0.20549672       0.06589766       0.13206764      -0.21577759       0.06501288
H        2.28586048      -1.06479343      -0.32104567      -0.25713481       0.05774801       0.28203139      -0.05370221      -0.06470531       0.03492053
7
Lattice="13.0 0.0 0.0 0.0 9.0 0.0 0.0 0.0 9.0" Properties=species:S:1:pos:R:3:momenta:R:3:forces:R:3 EPS_SCF=1e-06 energy=-670.9895052131128 units=gap_units Integrated_spin_density=1.924e-05 opt_dir=/home/tks32/dft_pbe/apr_8_opt_fragments_subset/singlepoint_5_CH3OH time=65.0 free_energy=-670.9895052131128 cutoff=8.0 nneightol=1.2 pbc="T T T"
C       -0.71544192       0.27454414      -0.07054239       0.13937078       0.28293765       0.35801848      -0.60003143      -0.30992811       0.15848949
O        0.58656842      -0.44931636      -0.03641794      -0.64783592      -1.07196648      -0.74648650      -0.56314638       0.35506121       0.12232066
H       -1.46379745      -0.46104185      -0.41607787       0.32858484       0.21780414      -0.20897924      -0.06991821       0.23809605      -0.12380472
H        1.19367649      -0.04236459       0.60573562       0.51535472       0.76365141       0.52207908       0.16261385       0.03644191       0.04821139
H       -1.03892311       0.57324983       0.93635346      -0.06985379      -0.04467801      -0.27256086      -0.13967175       0.17685390       0.07046187
H       -0.74844694       1.15283534      -0.74084521      -0.00848583      -0.20549672       0.06589766       0.17449581      -0.10001627      -0.04124748
H        2.18636451      -1.04790650      -0.27820567      -0.25713481       0.05774801       0.28203139       1.03565812      -0.39650869      -0.23443121
7
Lattice="13.0 0.0 0.0 0.0 9.0 0.0 0.0 0.0 9.0" Properties=species:S:1:pos:R:3:momenta:R:3:forces:R:3 EPS_SCF=1e-06 energy=-671.0017268350376 units=gap_units Integrated_spin_density=1.924e-05 opt_dir=/home/tks32/dft_pbe/apr_8_opt_fragments_subset/singlepoint_5_CH3OH time=65.0 free_energy=-671.0017268350376 cutoff=8.0 nneightol=1.2 pbc="T T T"
C       -0.71865747       0.27288324      -0.06969305       0.13937078       0.28293765       0.35801848      -0.43223269      -0.18545549       0.14629464
O        0.58355053      -0.44741360      -0.03576242      -0.64783592      -1.07196648      -0.74648650      -0.48265083       0.32580711       0.13413418
H       -1.46417213      -0.45976590      -0.41674134       0.32858484       0.21780414      -0.20897924      -0.14712109       0.16221965      -0.14132123
H        1.19454793      -0.04216930       0.60599398       0.51535472       0.76365141       0.52207908       0.09323725       0.03339836       0.01458564
H       -1.03967160       0.57419758       0.93673106      -0.06985379      -0.04467801      -0.27256086      -0.15202268       0.16651047       0.07669253
H       -0.74751182       1.15229936      -0.74106626      -0.00848583      -0.20549672       0.06589766       0.14758075      -0.12622108      -0.00976157
H        2.19191457      -1.05003138      -0.27946198      -0.25713481       0.05774801       0.28203139       0.97320929      -0.37625902      -0.22062420
7
Lattice="13.0 0.0 0.0 0.0 9.0 0.0 0.0 0.0 9.0" Properties=species:S:1:pos:R:3:momenta:R:3:forces:R:3 EPS_SCF=1e-06 energy=-671.0209241918799 units=gap_units Integrated_spin_density=1.924e-05 opt_dir=/home/tks32/dft_pbe/apr_8_opt_fragments_subset/singlepoint_5_CH3OH time=65.0 free_energy=-671.0209241918799 cutoff=8.0 nneightol=1.2 pbc="T T T"
C       -0.72412903       0.27028249      -0.06805623       0.13937078       0.28293765       0.35801848      -0.15909460       0.00453541       0.12847905
O        0.57795620      -0.44375820      -0.03437257      -0.64783592      -1.07196648      -0.74648650      -0.33262730       0.25993742       0.14158538
H       -1.46538669      -0.45765017      -0.41818121       0.32858484       0.21780414      -0.20897924      -0.26142954       0.04707329      -0.16307214
H        1.19588824      -0.04179437       0.60631349       0.51535472       0.76365141       0.52207908      -0.02466316       0.03788534      -0.03193554
H       -1.04125182       0.57604353       0.93752825      -0.06985379      -0.04467801      -0.27256086      -0.16895466       0.14623425       0.08283641
H       -0.74579013       1.15106427      -0.74132341      -0.00848583      -0.20549672       0.06589766       0.09805402      -0.15826308       0.03704778
H        2.20271325      -1.05418754      -0.28190832      -0.25713481       0.05774801       0.28203139       0.84871523      -0.33740262      -0.19494095
7
Lattice="13.0 0.0 0.0 0.0 9.0 0.0 0.0 0.0 9.0" Properties=species:S:1:pos:R:3:momenta:R:3:forces:R:3 EPS_SCF=1e-06 energy=-671.0410539395816 units=gap_units Integrated_spin_density=1.924e-05 opt_dir=/home/tks32/dft_pbe/apr_8_opt_fragments_subset/singlepoint_5_CH3OH time=65.0 free_energy=-671.0410539395816 cutoff=8.0 nneightol=1.2 pbc="T T T"
C       -0.73012488       0.26797236      -0.06571784       0.13937078       0.28293765       0.35801848       0.10238177       0.15249966       0.10805740
O        0.57068120      -0.43871777      -0.03216818      -0.64783592      -1.07196648      -0.74648650      -0.14101105       0.15115227       0.12005546
H       -1.46824042      -0.45542899      -0.42057531       0.32858484       0.21780414      -0.20897924      -0.33667755      -0.03856578      -0.16197657
H        1.19692842      -0.04120180       0.60638597       0.51535472       0.76365141       0.52207908      -0.15435160       0.06705528      -0.05656194
H       -1.04381185       0.57868970       0.93880359      -0.06985379      -0.04467801      -0.27256086      -0.17660851       0.11711320       0.07944260
H       -0.74358026       1.14888685      -0.74130535      -0.00848583      -0.20549672       0.06589766       0.03603591      -0.16351737       0.07339096
H        2.21814779      -1.06020036      -0.28542288      -0.25713481       0.05774801       0.28203139       0.67023103      -0.28573726      -0.16240792
7
Lattice="13.0 0.0 0.0 0.0 9.0 0.0 0.0 0.0 9.0" Properties=species:S:1:pos:R:3:momenta:R:3:forces:R:3 EPS_SCF=1e-06 energy=-671.058556128924 units=gap_units Integrated_spin_density=1.924e-05 opt_dir=/home/tks32/dft_pbe/apr_8_opt_fragments_subset/singlepoint_5_CH3OH time=65.0 free_energy=-671.058556128924 cutoff=8.0 nneightol=1.2 pbc="T T T"
C       -0.73474274       0.26705268      -0.06279175       0.13937078       0.28293765       0.35801848       0.22875468       0.15597780       0.07919199
O        0.56306161      -0.43303219      -0.02927147      -0.64783592      -1.07196648      -0.74648650       0.04530173       0.00797928       0.05286599
H       -1.47336848      -0.45372314      -0.42396150       0.32858484       0.21780414      -0.20897924      -0.29627883      -0.02784978      -0.10996576
H        1.19669107      -0.04015866       0.60602118       0.51535472       0.76365141       0.52207908      -0.24969018       0.12804655      -0.03231882
H       -1.04745862       0.58196166       0.94055539      -0.06985379      -0.04467801      -0.27256086      -0.16036216       0.08031393       0.05861212
H       -0.74131740       1.14568397      -0.74073110      -0.00848583      -0.20549672       0.06589766      -0.02333210      -0.11741082       0.07798422
H        2.23713457      -1.06778432      -0.28982075      -0.25713481       0.05774801       0.28203139       0.45560686      -0.22705697      -0.12636974
7
Lattice="13.0 0.0 0.0 0.0 9.0 0.0 0.0 0.0 9.0" Properties=species:S:1:pos:R:3:momenta:R:3:forces:R:3 EPS_SCF=1e-06 energy=-671.0704974372587 units=gap_units Integrated_spin_density=1.924e-05 opt_dir=/home/tks32/dft_pbe/apr_8_opt_fragments_subset/singlepoint_5_CH3OH time=65.0 free_energy=-671.0704974372587 cutoff=8.0 nneightol=1.2 pbc="T T T"
C       -0.73691870       0.26757513      -0.05947277       0.13937078       0.28293765       0.35801848       0.17942103       0.00892303       0.03891136
O        0.55659612      -0.42784610      -0.02620681      -0.64783592      -1.07196648      -0.74648650       0.18274528      -0.14161631      -0.05280789
H       -1.48054836      -0.45242895      -0.42796094       0.32858484       0.21780414      -0.20897924      -0.13002151       0.08143146      -0.00703335
H        1.19431611      -0.03811146       0.60541310       0.51535472       0.76365141       0.52207908      -0.26652459       0.19733045       0.03198166
H       -1.05212881       0.58560162       0.94263936      -0.06985379      -0.04467801      -0.27256086      -0.11268195       0.03486609       0.01716742
H       -0.73948279       1.14178506      -0.73953925      -0.00848583      -0.20549672       0.06589766      -0.06628028      -0.02760305       0.05005172
H        2.25816644      -1.07657530      -0.29487270      -0.25713481       0.05774801       0.28203139       0.21334202      -0.15333169      -0.07827092
7
Lattice="13.0 0.0 0.0 0.0 9.0 0.0 0.0 0.0 9.0" Properties=species:S:1:pos:R:3:momenta:R:3:forces:R:3 EPS_SCF=1e-06 energy=-671.0747670805519 units=gap_units Integrated_spin_density=1.924e-05 opt_dir=/home/tks32/dft_pbe/apr_8_opt_fragments_subset/singlepoint_5_CH3OH time=65.0 free_energy=-671.0747670805519 cutoff=8.0 nneightol=1.2 pbc="T T T"
C       -0.73703306       0.26813704      -0.05608578       0.13937078       0.28293765       0.35801848       0.03900247      -0.16196135      -0.00776808
O        0.55265533      -0.42463408      -0.02399135      -0.64783592      -1.07196648      -0.74648650       0.24064183      -0.24718358      -0.15518616
H       -1.48834654      -0.45042726      -0.43163272       0.32858484       0.21780414      -0.20897924       0.07851836       0.20308035       0.10437077
H        1.18943945      -0.03424092       0.60519453       0.51535472       0.76365141       0.52207908      -0.20677105       0.24126986       0.10287834
H       -1.05749007       0.58923593       0.94469137      -0.06985379      -0.04467801      -0.27256086      -0.03799291      -0.02224431      -0.03959058
H       -0.73851284       1.13799236      -0.73795218      -0.00848583      -0.20549672       0.06589766      -0.08586831       0.05697895       0.01636247
H        2.27928774      -1.08606305      -0.30022388      -0.25713481       0.05774801       0.28203139      -0.02753039      -0.06993993      -0.02106675
7
Lattice="13.0 0.0 0.0 0.0 9.0 0.0 0.0 0.0 9.0" Properties=species:S:1:pos:R:3:momenta:R:3:forces:R:3 EPS_SCF=1e-06 energy=-671.0752425651708 units=gap_units Integrated_spin_density=1.924e-05 opt_dir=/home/tks32/dft_pbe/apr_8_opt_fragments_subset/singlepoint_5_CH3OH time=65.0 free_energy=-671.0752425651708 cutoff=8.0 nneightol=1.2 pbc="T T T"
C       -0.73698081       0.26792005      -0.05609618       0.13937078       0.28293765       0.35801848       0.04600865      -0.14754700      -0.00848913
O        0.55297773      -0.42496524      -0.02419926      -0.64783592      -1.07196648      -0.74648650       0.23437108      -0.23701729      -0.14845899
H       -1.48824135      -0.45015519      -0.43149289       0.32858484       0.21780414      -0.20897924       0.07076704       0.19274067       0.09963431
H        1.18916243      -0.03391768       0.60533236       0.51535472       0.76365141       0.52207908      -0.20589193       0.23597414       0.09903620
H       -1.05754097       0.58920613       0.94463833      -0.06985379      -0.04467801      -0.27256086      -0.03589944      -0.02411363      -0.03992851
H       -0.73862788       1.13806869      -0.73793025      -0.00848583      -0.20549672       0.06589766      -0.08398586       0.05065270       0.01972481
H        2.27925085      -1.08615676      -0.30025210      -0.25713481       0.05774801       0.28203139      -0.02536954      -0.07068958      -0.02151869
7
Lattice="13.0 0.0 0.0 0.0 9.0 0.0 0.0 0.0 9.0" Properties=species:S:1:pos:R:3:momenta:R:3:forces:R:3 EPS_SCF=1e-06 energy=-671.0761286511115 units=gap_units Integrated_spin_density=1.924e-05 opt_dir=/home/tks32/dft_pbe/apr_8_opt_fragments_subset/singlepoint_5_CH3OH time=65.0 free_energy=-671.0761286511115 cutoff=8.0 nneightol=1.2 pbc="T T T"
C       -0.73686576       0.26750661      -0.05611810       0.13937078       0.28293765       0.35801848       0.05900628      -0.12038481      -0.00979970
O        0.55361441      -0.42561372      -0.02460588      -0.64783592      -1.07196648      -0.74648650       0.22194293      -0.21704338      -0.13537139
H       -1.48804204      -0.44962535      -0.43121973       0.32858484       0.21780414      -0.20897924       0.05604457       0.17293206       0.09052630
H        1.18860870      -0.03327787       0.60560283       0.51535472       0.76365141       0.52207908      -0.20385063       0.22559336       0.09163662
H       -1.05763986       0.58914365       0.94453155      -0.06985379      -0.04467801      -0.27256086      -0.03175980      -0.02770060      -0.04052326
H       -0.73885559       1.13821229      -0.73788136      -0.00848583      -0.20549672       0.06589766      -0.08022864       0.03874968       0.02592231
H        2.27918015      -1.08634560      -0.30030932      -0.25713481       0.05774801       0.28203139      -0.02115472      -0.07214632      -0.02239089
7
Lattice="13.0 0.0 0.0 0.0 9.0 0.0 0.0 0.0 9.0" Properties=species:S:1:pos:R:3:momenta:R:3:forces:R:3 EPS_SCF=1e-06 energy=-671.0773106866085 units=gap_units Integrated_spin_density=1.924e-05 opt_dir=/home/tks32/dft_pbe/apr_8_opt_fragments_subset/singlepoint_5_CH3OH time=65.0 free_energy=-671.0773106866085 cutoff=8.0 nneightol=1.2 pbc="T T T"
C       -0.73666591       0.26693804      -0.05615382       0.13937078       0.28293765       0.35801848       0.07589959      -0.08386352      -0.01146685
O        0.55454965      -0.42655159      -0.02519277      -0.64783592      -1.07196648      -0.74648650       0.20356130      -0.18798800      -0.11668106
H       -1.48777120      -0.44886626      -0.43082614       0.32858484       0.21780414      -0.20897924       0.03596625       0.14543204       0.07779603
H        1.18777764      -0.03233386       0.60599582       0.51535472       0.76365141       0.52207908      -0.20005137       0.21056333       0.08127749
H       -1.05778070       0.58904222       0.94436932      -0.06985379      -0.04467801      -0.27256086      -0.02566616      -0.03269640      -0.04120044