7
Lattice="13.0 0.0 0.0 0.0 9.0 0.0 0.0 0.0 9.0" Properties=species:S:1:pos:R:3:momenta:R:3:forces:R:3 EPS_SCF=1e-06 energy=-670.6193148220394 units=gap_units Integrated_spin_density=1.924e-05 opt_dir=/home/tks32/dft_pbe/apr_8_opt_fragments_subset/singlepoint_5_CH3OH time=45.0 free_energy=-670.6193148220394 cutoff=8.0 nneightol=1.2 pbc="T T T"
C       -0.72468928       0.38498031       0.05571742       0.36436470       0.37580701      -0.17426426       1.18984886      -1.76099360      -0.54624291
O        0.58233932      -0.39076746       0.39997219       0.36784383       0.41002685       1.22243653      -1.10452813       1.80586593       0.14859749
H       -1.56778737      -0.32588928      -0.15262912      -0.49698221      -0.33041504       0.35337882       0.72411556       0.54693273       0.18408866
H        0.72259976      -1.05723485      -0.27584083       0.01811534       0.50937054      -0.63342862       0.34061329      -0.74604478      -0.65794105
H       -1.02024695       1.00720544       0.88849699      -0.04302756       0.10222254      -0.28752014       0.25823597       0.00654775       0.62136868
H       -0.58147965       1.06415362      -0.80395772      -0.05550047      -0.14006379      -0.08382500      -0.26041679       0.07802850      -0.08044545
H        2.58926417      -0.68244778      -0.11175893      -0.15481364      -0.92694810      -0.39677734      -1.14786876       0.06966347       0.33057458
7
Lattice="13.0 0.0 0.0 0.0 9.0 0.0 0.0 0.0 9.0" Properties=species:S:1:pos:R:3:momenta:R:3:forces:R:3 EPS_SCF=1e-06 energy=-670.7127673037792 units=gap_units Integrated_spin_density=1.924e-05 opt_dir=/home/tks32/dft_pbe/apr_8_opt_fragments_subset/singlepoint_5_CH3OH time=45.0 free_energy=-670.7127673037792 cutoff=8.0 nneightol=1.2 pbc="T T T"
C       -0.71279079       0.36737037       0.05025499       0.36436470       0.37580701      -0.17426426       0.82844232      -0.49140118       0.04678288
O        0.57129404      -0.37270880       0.40145816       0.36784383       0.41002685       1.22243653      -0.58574993       0.65881086      -0.70056489
H       -1.56054621      -0.32041995      -0.15078823      -0.49698221      -0.33041504       0.35337882       0.47211985       0.18192939       0.09798371
H        0.72600589      -1.06469530      -0.28242024       0.01811534       0.50937054      -0.63342862       0.16380772       0.05296312       0.17710185
H       -1.01766459       1.00727092       0.89471068      -0.04302756       0.10222254      -0.28752014       0.43220937      -0.41812216       0.05757504
H       -0.58408382       1.06493391      -0.80476217      -0.05550047      -0.14006379      -0.08382500      -0.21909386      -0.06182514      -0.01871044
H        2.57778548      -0.68175115      -0.10845318      -0.15481364      -0.92694810      -0.39677734      -1.09173546       0.07764510       0.33983184
7
Lattice="13.0 0.0 0.0 0.0 9.0 0.0 0.0 0.0 9.0" Properties=species:S:1:pos:R:3:momenta:R:3:forces:R:3 EPS_SCF=1e-06 energy=-670.7617672502737 units=gap_units Integrated_spin_density=1.924e-05 opt_dir=/home/tks32/dft_pbe/apr_8_opt_fragments_subset/singlepoint_5_CH3OH time=45.0 free_energy=-670.7617672502737 cutoff=8.0 nneightol=1.2 pbc="T T T"
C       -0.69233603       0.34574040       0.04588918       0.36436470       0.37580701      -0.17426426       0.13551990       0.96905814       0.41505729
O        0.55446229      -0.34870550       0.39455382       0.36784383       0.41002685       1.22243653       0.29695381      -0.53266085      -1.25294639
H       -1.54847497      -0.31335727      -0.14797872      -0.49698221      -0.33041504       0.35337882       0.19353703      -0.24843004       0.02016720
H        0.73099851      -1.07078662      -0.28625821       0.01811534       0.50937054      -0.63342862      -0.04004638       0.69117986       0.79591639
H       -1.01025579       1.00241089       0.90098033      -0.04302756       0.10222254      -0.28752014       0.57295425      -0.75789360      -0.40035199
H       -0.58900507       1.06490883      -0.80570630      -0.05550047      -0.14006379      -0.08382500      -0.14478962      -0.20854949       0.06661960
H        2.55461106      -0.68021073      -0.10148010      -0.15481364      -0.92694810      -0.39677734      -1.01412899       0.08729598       0.35553790
7
Lattice="13.0 0.0 0.0 0.0 9.0 0.0 0.0 0.0 9.0" Properties=species:S:1:pos:R:3:momenta:R:3:forces:R:3 EPS_SCF=1e-06 energy=-670.777055188866 units=gap_units Integrated_spin_density=1.924e-05 opt_dir=/home/tks32/dft_pbe/apr_8_opt_fragments_subset/singlepoint_5_CH3OH time=45.0 free_energy=-670.777055188866 cutoff=8.0 nneightol=1.2 pbc="T T T"
C       -0.69199723       0.34816304       0.04692682       0.36436470       0.37580701      -0.17426426       0.11887164       0.77445180       0.30008154
O        0.55520468      -0.35003715       0.39142146       0.36784383       0.41002685       1.22243653       0.27622820      -0.34050652      -1.06482621
H       -1.54799113      -0.31397834      -0.14792830      -0.49698221      -0.33041504       0.35337882       0.23944951      -0.19749428       0.03462514
H        0.73089839      -1.06905867      -0.28426842       0.01811534       0.50937054      -0.63342862      -0.01866547       0.53450636       0.63137367
H       -1.00882340       1.00051616       0.89997945      -0.04302756       0.10222254      -0.28752014       0.55029393      -0.68390430      -0.30747752
H       -0.58936705       1.06438745      -0.80553975      -0.05550047      -0.14006379      -0.08382500      -0.14119055      -0.17420084       0.05101162
H        2.55207574      -0.67999249      -0.10059125      -0.15481364      -0.92694810      -0.39677734      -1.02498726       0.08714778       0.35521176
7
Lattice="13.0 0.0 0.0 0.0 9.0 0.0 0.0 0.0 9.0" Properties=species:S:1:pos:R:3:momenta:R:3:forces:R:3 EPS_SCF=1e-06 energy=-670.7996858368699 units=gap_units Integrated_spin_density=1.924e-05 opt_dir=/home/tks32/dft_pbe/apr_8_opt_fragments_subset/singlepoint_5_CH3OH time=45.0 free_energy=-670.7996858368699 cutoff=8.0 nneightol=1.2 pbc="T T T"
C       -0.69136075       0.35250355       0.04869770       0.36436470       0.37580701      -0.17426426       0.09858255       0.42329103       0.08916390
O        0.55664329      -0.35218539       0.38563228       0.36784383       0.41002685       1.22243653       0.23982380       0.01216084      -0.72110375
H       -1.54688779      -0.31508817      -0.14778634      -0.49698221      -0.33041504       0.35337882       0.31526266      -0.11069221       0.05979886
H        0.73075623      -1.06601265      -0.28071656       0.01811534       0.50937054      -0.63342862       0.02178590       0.24260617       0.32863866
H       -1.00599935       0.99690333       0.89822103      -0.04302756       0.10222254      -0.28752014       0.50357039      -0.54369959      -0.13184004
H       -0.59008664       1.06343233      -0.80524757      -0.05550047      -0.14006379      -0.08382500      -0.13443024      -0.11061532       0.02067840
H        2.54693502      -0.67955300      -0.09880052      -0.15481364      -0.92694810      -0.39677734      -1.04459506       0.08694907       0.35466398
7
Lattice="13.0 0.0 0.0 0.0 9.0 0.0 0.0 0.0 9.0" Properties=species:S:1:pos:R:3:momenta:R:3:forces:R:3 EPS_SCF=1e-06 energy=-670.8202859783938 units=gap_units Integrated_spin_density=1.924e-05 opt_dir=/home/tks32/dft_pbe/apr_8_opt_fragments_subset/singlepoint_5_CH3OH time=45.0 free_energy=-670.8202859783938 cutoff=8.0 nneightol=1.2 pbc="T T T"
C       -0.69047212       0.35776596       0.05057711       0.36436470       0.37580701      -0.17426426       0.09173355      -0.00446075      -0.17142549
O        0.55870628      -0.35407985       0.37811206       0.36784383       0.41002685       1.22243653       0.20415033       0.43801066      -0.30725928
H       -1.54488488      -0.31644160      -0.14746703      -0.49698221      -0.33041504       0.35337882       0.39190478      -0.01647806       0.08813661
H        0.73069807      -1.06249408      -0.27646714       0.01811534       0.50937054      -0.63342862       0.07079015      -0.11798508      -0.03849851
H       -1.00184459       0.99191011       0.89621612      -0.04302756       0.10222254      -0.28752014       0.43362910      -0.35841703       0.09829611
H       -0.59116490       1.06221838      -0.80491837      -0.05550047      -0.14006379      -0.08382500      -0.12476605      -0.02763006      -0.02311523
H        2.53896215      -0.67887892      -0.09605275      -0.15481364      -0.92694810      -0.39677734      -1.06744185       0.08696032       0.35386579
7
Lattice="13.0 0.0 0.0 0.0 9.0 0.0 0.0 0.0 9.0" Properties=species:S:1:pos:R:3:momenta:R:3:forces:R:3 EPS_SCF=1e-06 energy=-670.8372490547707 units=gap_units Integrated_spin_density=1.924e-05 opt_dir=/home/tks32/dft_pbe/apr_8_opt_fragments_subset/singlepoint_5_CH3OH time=45.0 free_energy=-670.8372490547707 cutoff=8.0 nneightol=1.2 pbc="T T T"
C       -0.68934375       0.36248616       0.05165450       0.36436470       0.37580701      -0.17426426       0.10617640      -0.38306066      -0.39912047
O        0.56129429      -0.35421582       0.37024319       0.36784383       0.41002685       1.22243653       0.19543616       0.79365646       0.04199091
H       -1.54167838      -0.31771872      -0.14686392      -0.49698221      -0.33041504       0.35337882       0.43312478       0.04751387       0.10873771
H        0.73089931      -1.05975001      -0.27278056       0.01811534       0.50937054      -0.63342862       0.10919141      -0.43368137      -0.35073005
H       -0.99655196       0.98613230       0.89476382      -0.04302756       0.10222254      -0.28752014       0.35020278      -0.17121289       0.32440868
H       -0.59258227       1.06102684      -0.80470490      -0.05550047      -0.14006379      -0.08382500      -0.11176217       0.05922247      -0.07747184
H        2.52796277      -0.67796075      -0.09231213      -0.15481364      -0.92694810      -0.39677734      -1.08236937       0.08756212       0.35218508
7
Lattice="13.0 0.0 0.0 0.0 9.0 0.0 0.0 0.0 9.0" Properties=species:S:1:pos:R:3:momenta:R:3:forces:R:3 EPS_SCF=1e-06 energy=-670.8579571792895 units=gap_units Integrated_spin_density=1.924e-05 opt_dir=/home/tks32/dft_pbe/apr_8_opt_fragments_subset/singlepoint_5_CH3OH time=45.0 free_energy=-670.8579571792895 cutoff=8.0 nneightol=1.2 pbc="T T T"
C       -0.68795319       0.36538134       0.05121443       0.36436470       0.37580701      -0.17426426       0.13208824      -0.59539374      -0.51176364
O        0.56431378      -0.35153494       0.36330953       0.36784383       0.41002685       1.22243653       0.23237151       0.94857299       0.21024633
H       -1.53726271      -0.31870030      -0.14593705      -0.49698221      -0.33041504       0.35337882       0.41508490       0.05462071       0.11307892
H        0.73146609      -1.05881214      -0.27070145       0.01811534       0.50937054      -0.63342862       0.11903351      -0.59713210      -0.50242473
H       -0.99055165       0.98032752       0.89460258      -0.04302756       0.10222254      -0.28752014       0.27097606      -0.03213351       0.47835903
H       -0.59425266       1.06016364      -0.80478640      -0.05550047      -0.14006379      -0.08382500      -0.09483755       0.13265267      -0.13561402
H        2.51424033      -0.67682512      -0.08770163      -0.15481364      -0.92694810      -0.39677734      -1.07471667       0.08881299       0.34811811
7
Lattice="13.0 0.0 0.0 0.0 9.0 0.0 0.0 0.0 9.0" Properties=species:S:1:pos:R:3:momenta:R:3:forces:R:3 EPS_SCF=1e-06 energy=-670.88841691174 units=gap_units Integrated_spin_density=1.924e-05 opt_dir=/home/tks32/dft_pbe/apr_8_opt_fragments_subset/singlepoint_5_CH3OH time=45.0 free_energy=-670.88841691174 cutoff=8.0 nneightol=1.2 pbc="T T T"
C       -0.68624294       0.36591918       0.04904100       0.36436470       0.37580701      -0.17426426       0.15418366      -0.58569880      -0.47108355
O        0.56783836      -0.34582774       0.35779942       0.36784383       0.41002685       1.22243653       0.31295581       0.85389226       0.16256640
H       -1.53184700      -0.31939402      -0.14471015      -0.49698221      -0.33041504       0.35337882       0.33292810      -0.00143774       0.09886696
H        0.73238961      -1.06004191      -0.27057518       0.01811534       0.50937054      -0.63342862       0.09527375      -0.56648744      -0.46001283
H       -0.98421026       0.97499163       0.89611882      -0.04302756       0.10222254      -0.28752014       0.21455777       0.02681393       0.51706845
H       -0.59608538       1.05984746      -0.80533075      -0.05550047      -0.14006379      -0.08382500      -0.07371318       0.18031829      -0.18841370
H        2.49815761      -0.67549460      -0.08234316      -0.15481364      -0.92694810      -0.39677734      -1.03618591       0.09259949       0.34100827
7
Lattice="13.0 0.0 0.0 0.0 9.0 0.0 0.0 0.0 9.0" Properties=species:S:1:pos:R:3:momenta:R:3:forces:R:3 EPS_SCF=1e-06 energy=-670.9255275327946 units=gap_units Integrated_spin_density=1.924e-05 opt_dir=/home/tks32/dft_pbe/apr_8_opt_fragments_subset/singlepoint_5_CH3OH time=45.0 free_energy=-670.9255275327946 cutoff=8.0 nneightol=1.2 pbc="T T T"
C       -0.68414226       0.36427043       0.04536948       0.36436470       0.37580701      -0.17426426       0.16244034      -0.36324992      -0.29327873
O        0.57215010      -0.33758183       0.35343230       0.36784383       0.41002685       1.22243653       0.41439568       0.54444870      -0.05938577
H       -1.52576051      -0.32002361      -0.14324591      -0.49698221      -0.33041504       0.35337882       0.19770175      -0.10938407       0.06972927
H        0.73356771      -1.06321156      -0.27213666       0.01811534       0.50937054      -0.63342862       0.04662317      -0.36913107      -0.25921138
H       -0.97772171       0.97028696       0.89936633      -0.04302756       0.10222254      -0.28752014       0.17991936       0.00687029       0.43941974
H       -0.59800325       1.06021953      -0.80650677      -0.05550047      -0.14006379      -0.08382500      -0.04871351       0.19453269      -0.22460472
H        2.47990992      -0.67395993      -0.07627877      -0.15481364      -0.92694810      -0.39677734      -0.95236679       0.09591337       0.32733159
7
Lattice="13.0 0.0 0.0 0.0 9.0 0.0 0.0 0.0 9.0" Properties=species:S:1:pos:R:3:momenta:R:3:forces:R:3 EPS_SCF=1e-06 energy=-670.9637063040104 units=gap_units Integrated_spin_density=1.924e-05 opt_dir=/home/tks32/dft_pbe/apr_8_opt_fragments_subset/singlepoint_5_CH3OH time=45.0 free_energy=-670.9637063040104 cutoff=8.0 nneightol=1.2 pbc="T T T"
C       -0.68127614       0.36087952       0.04031478       0.36436470       0.37580701      -0.17426426       0.14599233       0.04519172      -0.01521921
O        0.57842500      -0.32678246       0.34882135       0.36784383       0.41002685       1.22243653       0.50236859       0.07772316      -0.39046674
H       -1.51877773      -0.32117648      -0.14145873      -0.49698221      -0.33041504       0.35337882       0.02311528      -0.25386984       0.03112437
H        0.73495975      -1.06813663      -0.27493749       0.01811534       0.50937054      -0.63342862      -0.00689213      -0.05510174       0.04516573
H       -0.97042697       0.96566261       0.90470878      -0.04302756       0.10222254      -0.28752014       0.15906273      -0.07630261       0.26002685
H       -0.60013779       1.06152969      -0.80875843      -0.05550047      -0.14006379      -0.08382500      -0.01736014       0.16772529      -0.23043223
H        2.45723389      -0.67197625      -0.06869026      -0.15481364      -0.92694810      -0.39677734      -0.80628667       0.09463400       0.29980124
7
Lattice="13.0 0.0 0.0 0.0 9.0 0.0 0.0 0.0 9.0" Properties=species:S:1:pos:R:3:momenta:R:3:forces:R:3 EPS_SCF=1e-06 energy=-670.9959764132058 units=gap_units Integrated_spin_density=1.924e-05 opt_dir=/home/tks32/dft_pbe/apr_8_opt_fragments_subset/singlepoint_5_CH3OH time=45.0 free_energy=-670.9959764132058 cutoff=8.0 nneightol=1.2 pbc="T T T"
C       -0.67748143       0.35781413       0.03520561       0.36436470       0.37580701      -0.17426426       0.07509636       0.46259355       0.22337996
O        0.58792719      -0.31557127       0.34169960       0.36784383       0.41002685       1.22243653       0.48987603      -0.32919152      -0.64195109
H       -1.51170603      -0.32397821      -0.13948404      -0.49698221      -0.33041504       0.35337882      -0.11128443      -0.36001981       0.00331742
H        0.73629436      -1.07337797      -0.27741821       0.01811534       0.50937054      -0.63342862      -0.02347612       0.21019594       0.29401268
H       -0.96215763       0.96058075       0.91170305      -0.04302756       0.10222254      -0.28752014       0.13804478      -0.16310071       0.05966891
H       -0.60236679       1.06392433      -0.81249601      -0.05550047      -0.14006379      -0.08382500       0.01981947       0.10044102      -0.18528277
H        2.42949032      -0.66939177      -0.05920999      -0.15481364      -0.92694810      -0.39677734      -0.58807609       0.07908153       0.24685489
7
Lattice="13.0 0.0 0.0 0.0 9.0 0.0 0.0 0.0 9.0" Properties=species:S:1:pos:R:3:momenta:R:3:forces:R:3 EPS_SCF=1e-06 energy=-671.0247399047225 units=gap_units Integrated_spin_density=1.924e-05 opt_dir=/home/tks32/dft_pbe/apr_8_opt_fragments_subset/singlepoint_5_CH3OH time=45.0 free_energy=-671.0247399047225 cutoff=8.0 nneightol=1.2 pbc="T T T"
C       -0.67315479       0.35823191       0.03180675       0.36436470       0.37580701      -0.17426426      -0.07740253       0.62226697       0.26763511
O        0.60101840      -0.30690930       0.32983303       0.36784383       0.41002685       1.22243653       0.30320422      -0.42622524      -0.61637663
H       -1.50552174      -0.32945025      -0.13749997      -0.49698221      -0.33041504       0.35337882      -0.12281110      -0.32998360       0.00577730
H        0.73744299      -1.07700655      -0.27768096       0.01811534       0.50937054      -0.63342862       0.02424959       0.24451517       0.32596858
H       -0.95292059       0.95431893       0.91908888      -0.04302756       0.10222254      -0.28752014       0.10130050      -0.17118758      -0.04941271
H       -0.60443016       1.06705136      -0.81758991      -0.05550047      -0.14006379      -0.08382500       0.05646756       0.02344567      -0.09357842
H        2.39756589      -0.66623610      -0.04795782      -0.15481364      -0.92694810      -0.39677734      -0.28500825       0.03716861       0.15998678
7
Lattice="13.0 0.0 0.0 0.0 9.0 0.0 0.0 0.0 9.0" Properties=species:S:1:pos:R:3:momenta:R:3:forces:R:3 EPS_SCF=1e-06 energy=-671.0442336389078 units=gap_units Integrated_spin_density=1.924e-05 opt_dir=/home/tks32/dft_pbe/apr_8_opt_fragments_subset/singlepoint_5_CH3OH time=45.0 free_energy=-671.0442336389078 cutoff=8.0 nneightol=1.2 pbc="T T T"
C       -0.66955774       0.36427812       0.03085276       0.36436470       0.37580701      -0.17426426      -0.27739205       0.37085295       0.06697405
O        0.61676534      -0.30216280       0.31246843       0.36784383       0.41002685       1.22243653      -0.03770566      -0.11791993      -0.25902955
H       -1.50049047      -0.33787164      -0.13547698      -0.49698221      -0.33041504       0.35337882      -0.00031758      -0.12667186       0.03711455
H        0.73880334      -1.07839795      -0.27499207       0.01811534       0.50937054      -0.63342862       0.13459417      -0.01637973       0.10033848
H       -0.94282903       0.94655010       0.92597782      -0.04302756       0.10222254      -0.28752014       0.03980922      -0.05486479      -0.00574807
H       -0.60596864       1.07036950      -0.82349637      -0.05550047      -0.14006379      -0.08382500       0.07593867      -0.02097406       0.01588514
H        2.36327720      -0.66276533      -0.03533359      -0.15481364      -0.92694810      -0.39677734       0.06507323      -0.03404258       0.04446540
7
Lattice="13.0 0.0 0.0 0.0 9.0 0.0 0.0 0.0 9.0" Properties=species:S:1:pos:R:3:momenta:R:3:forces:R:3 EPS_SCF=1e-06 energy=-671.0349506653971 units=gap_units Integrated_spin_density=1.924e-05 opt_dir=/home/tks32/dft_pbe/apr_8_opt_fragments_subset/singlepoint_5_CH3OH time=45.0 free_energy=-671.0349506653971 cutoff=8.0 nneightol=1.2 pbc="T T T"
C       -0.67012374       0.37582852       0.03090438       0.36436470       0.37580701      -0.17426426      -0.34575318      -0.21551972      -0.24933659
O        0.63185994      -0.29920425       0.29133377       0.36784383       0.41002685       1.22243653      -0.37907674       0.37548825       0.23921257
H       -1.49549245      -0.34813709      -0.13291117      -0.49698221      -0.33041504       0.35337882       0.12087666       0.16030476       0.06321219
H        0.74216606      -1.08002609      -0.27081992       0.01811534       0.50937054      -0.63342862       0.19554086      -0.39881864      -0.22625853
H       -0.93220011       0.93800592       0.93274189      -0.04302756       0.10222254      -0.28752014      -0.05821345       0.16536546       0.15904720
H       -0.60636430       1.07335561      -0.82913212      -0.05550047      -0.14006379      -0.08382500       0.04621752       0.01426840       0.07917251
H        2.33015461      -0.65982262      -0.02211683      -0.15481364      -0.92694810      -0.39677734       0.42040833      -0.10108852      -0.06504935
7
Lattice="13.0 0.0 0.0 0.0 9.0 0.0 0.0 0.0 9.0" Properties=species:S:1:pos:R:3:momenta:R:3:forces:R:3 EPS_SCF=1e-06 energy=-671.0366674621936 units=gap_units Integrated_spin_density=1.924e-05 opt_dir=/home/tks32/dft_pbe/apr_8_opt_fragments_subset/singlepoint_5_CH3OH time=45.0 free_energy=-671.0366674621936 cutoff=8.0 nneightol=1.2 pbc="T T T"
C       -0.67068424       0.37547915       0.03050019       0.36436470       0.37580701      -0.17426426      -0.31601401      -0.17874827      -0.21123986
O        0.63124543      -0.29859555       0.29172156       0.36784383       0.41002685       1.22243653      -0.36072458       0.31394102       0.19615444
H       -1.49529650      -0.34787723      -0.13280870      -0.49698221      -0.33041504       0.35337882       0.09610152       0.13915143       0.05631856
H        0.74248305      -1.08067261      -0.27118671       0.01811534       0.50937054      -0.63342862       0.18713284      -0.34259198      -0.18656354
H       -0.93229448       0.93827399       0.93299972      -0.04302756       0.10222254      -0.28752014      -0.05789835       0.15179208       0.13696392
H       -0.60628938       1.07337875      -0.82900378      -0.05550047      -0.14006379      -0.08382500       0.04170562       0.01571200       0.07172181
H        2.33083612      -0.65998649      -0.02222228      -0.15481364      -0.92694810      -0.39677734       0.40969695      -0.09925627      -0.06335531
7
Lattice="13.0 0.0 0.0 0.0 9.0 0.0 0.0 0.0 9.0" Properties=species:S:1:pos:R:3:momenta:R:3:forces:R:3 EPS_SCF=1e-06 energy=-671.0394075840296 units=gap_units Integrated_spin_density=1.924e-05 opt_dir=/home/tks32/dft_pbe/apr_8_opt_fragments_subset/singlepoint_5_CH3OH time=45.0 free_energy=-671.0394075840296 cutoff=8.0 nneightol=1.2 pbc="T T T"
C       -0.67175820       0.37484257       0.02975572       0.36436470       0.37580701      -0.17426426      -0.25922158      -0.11096119      -0.14108898
O        0.63004227      -0.29748195       0.29242407       0.36784383       0.41002685       1.22243653      -0.32517365       0.20132150       0.11764629
H       -1.49494695      -0.34739257      -0.13261498      -0.49698221      -0.33041504       0.35337882       0.04961003       0.09959919       0.04339958
H        0.74310559      -1.08187189      -0.27185303       0.01811534       0.50937054      -0.63342862       0.17079417      -0.23947223      -0.11419618
H       -0.93248376       0.93878881       0.93347860      -0.04302756       0.10222254      -0.28752014      -0.05744050       0.12667719       0.09632002
H       -0.60614679       1.07342788      -0.82875901      -0.05550047      -0.14006379      -0.08382500       0.03295397       0.01843635       0.05783906
H        2.33218784      -0.66031286      -0.02243136      -0.15481364      -0.92694810      -0.39677734       0.38847755      -0.09560081      -0.05991979
7
Lattice="13.0 0.0 0.0 0.0 9.0 0.0 0.0 0.0 9.0" Properties=species:S:1:pos:R:3:momenta:R:3:forces:R:3 EPS_SCF=1e-06 energy=-671.0421657190108 units=gap_units Integrated_spin_density=1.924e-05 opt_dir=/home/tks32/dft_pbe/apr_8_opt_fragments_subset/singlepoint_5_CH3OH time=45.0 free_energy=-671.0421657190108 cutoff=8.0 nneightol=1.2 pbc="T T T"
C       -0.67325646       0.37404206       0.02879630       0.36436470       0.37580701      -0.17426426      -0.18100279      -0.02373759      -0.05055276
O        0.62829246      -0.29606677       0.29329763       0.36784383       0.41002685       1.22243653      -0.27456456       0.05760087       0.01822198
H       -1.49453060      -0.34675209      -0.13235161      -0.49698221      -0.33041504       0.35337882      -0.01228002       0.04733396       0.02618290
H        0.74401619      -1.08344243      -0.27268696       0.01811534       0.50937054      -0.63342862       0.14740119      -0.10707596      -0.02249213
H       -0.93277192       0.93951198       0.93410716      -0.04302756       0.10222254      -0.28752014      -0.05703408       0.09386288       0.04379091
H       -0.60595087       1.07350991      -0.82842009      -0.05550047      -0.14006379      -0.08382500       0.02049019       0.02213436       0.03948413
H        2.33420120      -0.66080267      -0.02274244      -0.15481364      -0.92694810      -0.39677734       0.35699008      -0.09011851      -0.05463503
7
Lattice="13.0 0.0 0.0 0.0 9.0 0.0 0.0 0.0 9.0" Properties=species:S:1:pos:R:3:momenta:R:3:forces:R:3 EPS_SCF=1e-06 energy=-671.0441952747894 units=gap_units Integrated_spin_density=1.924e-05 opt_dir=/home/tks32/dft_pbe/apr_8_opt_fragments_subset/singlepoint_5_CH3OH time=45.0 free_energy=-671.0441952747894 cutoff=8.0 nneightol=1.2 pbc="T T T"
C       -0.67504386       0.37326403       0.02781023       0.36436470       0.37580701      -0.17426426      -0.09094319       0.06492463       0.04321793
O        0.62605176      -0.29465341       0.29412804       0.36784383       0.41002685       1.22243653      -0.21210723      -0.08853985      -0.08122860
H       -1.49418567      -0.34606086      -0.13205108      -0.49698221      -0.33041504       0.35337882      -0.07921626      -0.00839254       0.00735529
H        0.74519321      -1.08511559      -0.27349204       0.01811534       0.50937054      -0.63342862       0.11826765       0.02964479       0.06954782
H       -0.93316959       0.94039047       0.93477906      -0.04302756       0.10222254      -0.28752014      -0.05664183       0.05882129      -0.01110033
H       -0.60572484       1.07363742      -0.82801930      -0.05550047      -0.14006379      -0.08382500       0.00517038       0.02634164       0.01956040
H        2.33687898      -0.66146206      -0.02315491      -0.15481364      -0.92694810      -0.39677734       0.31547049      -0.08279996      -0.04735251
7
Lattice="13.0 0.0 0.0 0.0 9.0 0.0 0.0 0.0 9.0" Properties=species:S:1:pos:R:3:momenta:R:3:forces:R:3 EPS_SCF=1e-06 energy=-671.045454656495 units=gap_units Integrated_spin_density=1.924e-05 opt_dir=/home/tks32/dft_pbe/apr_8_opt_fragments_subset/singlepoint_5_CH3OH time=45.0 free_energy=-671.045454656495 cutoff=8.0 nneightol=1.2 pbc="T T T"
C       -0.67690225       0.37274209       0.02704145       0.36436470       0.37580701      -0.17426426      -0.00449008       0.13128515       0.11837745
O        0.62345268      -0.29362452       0.29465234       0.36784383       0.41002685       1.22243653      -0.14354756      -0.20181910      -0.15524718
H       -1.49409276      -0.34546180      -0.13176041      -0.49698221      -0.33041504       0.35337882      -0.13609941      -0.05440426      -0.00930474
H        0.74657729      -1.08654003      -0.27402563       0.01811534       0.50937054      -0.63342862       0.08587692       0.14010617       0.13891650
H       -0.93368303       0.94134263       0.93535329      -0.04302756       0.10222254      -0.28752014      -0.05577029       0.02839649      -0.05656610
H       -0.60550722       1.07382452      -0.82760487      -0.05550047      -0.14006379      -0.08382500      -0.01141210       0.03031962       0.00199401
H        2.34015529      -0.66228288      -0.02365617      -0.15481364      -0.92694810      -0.39677734       0.26544252      -0.07388407      -0.03816994
7
Lattice="13.0 0.0 0.0 0.0 9.0 0.0 0.0 0.0 9.0" Properties=species:S:1:pos:R:3:momenta:R:3:forces:R:3 EPS_SCF=1e-06 energy=-671.0464647945938 units=gap_units Integrated_spin_density=1.924e-05 opt_dir=/home/tks32/dft_pbe/apr_8_opt_fragments_subset/singlepoint_5_CH3OH time=45.0 free_energy=-671.0464647945938 cutoff=8.0 nneightol=1.2 pbc="T T T"
C       -0.67858685       0.37262467       0.02666723       0.36436470       0.37580701      -0.17426426       0.06295431       0.15838302       0.15902427
O        0.62072827      -0.29324014       0.29470758       0.36784383       0.41002685       1.22243653      -0.07639916      -0.25812772      -0.18698092
H       -1.49437439      -0.34506866      -0.13152377      -0.49698221      -0.33041504       0.35337882      -0.17002176      -0.07999664      -0.02060362
H        0.74805343      -1.08744603      -0.27413305       0.01811534       0.50937054      -0.63342862       0.05368005       0.20300634       0.17039199
H       -0.93429480       0.94227579       0.93571829      -0.04302756       0.10222254      -0.28752014      -0.05372281       0.00760913      -0.08419596