7
Lattice="13.0 0.0 0.0 0.0 9.0 0.0 0.0 0.0 9.0" Properties=species:S:1:pos:R:3:momenta:R:3:forces:R:3 EPS_SCF=1e-06 energy=-670.8047611339856 units=gap_units Integrated_spin_density=1.924e-05 opt_dir=/home/tks32/dft_pbe/apr_8_opt_fragments_subset/singlepoint_5_CH3OH time=85.0 free_energy=-670.8047611339856 cutoff=8.0 nneightol=1.2 pbc="T T T"
C       -0.67569513       0.41780884      -0.05411275      -0.93756521       1.14422777       0.15124468      -0.73508987      -1.12368007       0.65096069
O        0.80712763      -0.35327952       0.08832240       1.42762877      -0.65604770      -0.89223613       0.54210428       0.84892556      -0.88924336
H       -1.40829984      -0.33285404      -0.46037155       0.35515215       0.16433642      -0.51311865       0.43145641       0.55660674       0.20500420
H        0.79512441      -1.07989040       0.73206594      -0.46640640      -1.02841868       0.37070024      -0.10499679      -0.58970789       0.49442586
H       -0.97447851       0.76414150       0.96067548      -0.00703248      -0.18512165       0.05159471      -0.02540846      -0.00774623      -0.30077659
H       -0.52819616       1.24836167      -0.74704008      -0.39824022       0.02628070       0.29656273       0.13453020       0.41590954      -0.35484491
H        1.98441760      -0.66428806      -0.51953943       0.02646339       0.53474315       0.53525241      -0.24259576      -0.10030765       0.19447410
7
Lattice="13.0 0.0 0.0 0.0 9.0 0.0 0.0 0.0 9.0" Properties=species:S:1:pos:R:3:momenta:R:3:forces:R:3 EPS_SCF=1e-06 energy=-670.8375974063634 units=gap_units Integrated_spin_density=1.924e-05 opt_dir=/home/tks32/dft_pbe/apr_8_opt_fragments_subset/singlepoint_5_CH3OH time=85.0 free_energy=-670.8375974063634 cutoff=8.0 nneightol=1.2 pbc="T T T"
C       -0.68304603       0.40657204      -0.04760314      -0.93756521       1.14422777       0.15124468      -0.15870955      -0.08659663       0.04888832
O        0.81254867      -0.34479026       0.07942997       1.42762877      -0.65604770      -0.89223613       0.54350129       0.05601269      -0.20787498
H       -1.40398528      -0.32728797      -0.45832151       0.35515215       0.16433642      -0.51311865       0.06467579       0.14273275       0.05139425
H        0.79407444      -1.08578748       0.73701020      -0.46640640      -1.02841868       0.37070024      -0.01661630       0.04260503      -0.09350393
H       -0.97473259       0.76406404       0.95766771      -0.00703248      -0.18512165       0.05159471      -0.10081830      -0.00597756      -0.06254967
H       -0.52685086       1.25252077      -0.75058853      -0.39824022       0.02628070       0.29656273      -0.00299879      -0.09315740       0.05977656
H        1.98199164      -0.66529114      -0.51759469       0.02646339       0.53474315       0.53525241      -0.32903415      -0.05561889       0.20386945
7
Lattice="13.0 0.0 0.0 0.0 9.0 0.0 0.0 0.0 9.0" Properties=species:S:1:pos:R:3:momenta:R:3:forces:R:3 EPS_SCF=1e-06 energy=-670.8311682386089 units=gap_units Integrated_spin_density=1.924e-05 opt_dir=/home/tks32/dft_pbe/apr_8_opt_fragments_subset/singlepoint_5_CH3OH time=85.0 free_energy=-670.8311682386089 cutoff=8.0 nneightol=1.2 pbc="T T T"
C       -0.69174000       0.39532501      -0.04110435      -0.93756521       1.14422777       0.15124468       0.45642462       0.97475533      -0.45556982
O        0.82454430      -0.33641650       0.06870483       1.42762877      -0.65604770      -0.89223613       0.61851693      -0.72334220       0.38639367
H       -1.39925529      -0.32040955      -0.45580351       0.35515215       0.16433642      -0.51311865      -0.37586751      -0.35624508      -0.15978890
H        0.79291189      -1.09053697       0.74023568      -0.46640640      -1.02841868       0.37070024       0.12500594       0.58817820      -0.62009050
H       -0.97628140       0.76391605       0.95414169      -0.00703248      -0.18512165       0.05159471      -0.16915086       0.00349334       0.18775906
H       -0.52567935       1.25504413      -0.75299941      -0.39824022       0.02628070       0.29656273      -0.14066142      -0.50552378       0.39689782
H        1.97549986      -0.66692219      -0.51317493       0.02646339       0.53474315       0.53525241      -0.51426770       0.01868419       0.26439866
7
Lattice="13.0 0.0 0.0 0.0 9.0 0.0 0.0 0.0 9.0" Properties=species:S:1:pos:R:3:momenta:R:3:forces:R:3 EPS_SCF=1e-06 energy=-670.8410230173622 units=gap_units Integrated_spin_density=1.924e-05 opt_dir=/home/tks32/dft_pbe/apr_8_opt_fragments_subset/singlepoint_5_CH3OH time=85.0 free_energy=-670.8410230173622 cutoff=8.0 nneightol=1.2 pbc="T T T"
C       -0.69059894       0.39776190      -0.04224327      -0.93756521       1.14422777       0.15124468       0.31558682       0.78138390      -0.36714938
O        0.82609059      -0.33822485       0.06967081       1.42762877      -0.65604770      -0.89223613       0.65432181      -0.59881796       0.25210543
H       -1.40019496      -0.32130016      -0.45620298       0.35515215       0.16433642      -0.51311865      -0.29093178      -0.27007507      -0.12102169
H        0.79322441      -1.08906653       0.73868545      -0.46640640      -1.02841868       0.37070024       0.12168288       0.46619995      -0.51228190
H       -0.97670428       0.76392478       0.95461109      -0.00703248      -0.18512165       0.05159471      -0.14976863       0.00275105       0.14746496
H       -0.52603101       1.25378032      -0.75200717      -0.39824022       0.02628070       0.29656273      -0.11504571      -0.40221751       0.31761895
H        1.97421419      -0.66687548      -0.51251393       0.02646339       0.53474315       0.53525241      -0.53584538       0.02077563       0.28326364
7
Lattice="13.0 0.0 0.0 0.0 9.0 0.0 0.0 0.0 9.0" Properties=species:S:1:pos:R:3:momenta:R:3:forces:R:3 EPS_SCF=1e-06 energy=-670.8548703807918 units=gap_units Integrated_spin_density=1.924e-05 opt_dir=/home/tks32/dft_pbe/apr_8_opt_fragments_subset/singlepoint_5_CH3OH time=85.0 free_energy=-670.8548703807918 cutoff=8.0 nneightol=1.2 pbc="T T T"
C       -0.68868942       0.40214030      -0.04429507      -0.93756521       1.14422777       0.15124468       0.06515053       0.43713143      -0.20041213
O        0.82931212      -0.34152701       0.07124523       1.42762877      -0.65604770      -0.89223613       0.72769924      -0.37400395       0.00337947
H       -1.40185428      -0.32285700      -0.45690095       0.35515215       0.16433642      -0.51311865      -0.14427283      -0.12102952      -0.05591416
H        0.79384597      -1.08643936       0.73585761      -0.46640640      -1.02841868       0.37070024       0.11844561       0.24007364      -0.31397160
H       -0.97750371       0.76394034       0.95544594      -0.00703248      -0.18512165       0.05159471      -0.11490005       0.00194028       0.07527360
H       -0.52666923       1.25151806      -0.75022590      -0.39824022       0.02628070       0.29656273      -0.06975141      -0.20989097       0.16949840
H        1.97155855      -0.66677534      -0.51112686       0.02646339       0.53474315       0.53525241      -0.58237108       0.02577910       0.32214643
7
Lattice="13.0 0.0 0.0 0.0 9.0 0.0 0.0 0.0 9.0" Properties=species:S:1:pos:R:3:momenta:R:3:forces:R:3 EPS_SCF=1e-06 energy=-670.8664910589785 units=gap_units Integrated_spin_density=1.924e-05 opt_dir=/home/tks32/dft_pbe/apr_8_opt_fragments_subset/singlepoint_5_CH3OH time=85.0 free_energy=-670.8664910589785 cutoff=8.0 nneightol=1.2 pbc="T T T"
C       -0.68675972       0.40749751      -0.04679117      -0.93756521       1.14422777       0.15124468      -0.23839562       0.03169574       0.01175413
O        0.83456981      -0.34571103       0.07267316       1.42762877      -0.65604770      -0.89223613       0.84279222      -0.11192965      -0.30758403
H       -1.40381522      -0.32465038      -0.45771033       0.35515215       0.16433642      -0.51311865       0.02276486       0.04856141       0.01498960
H        0.79478923      -1.08329688       0.73229504      -0.46640640      -1.02841868       0.37070024       0.12326743      -0.04105167      -0.07186348
H       -0.97859556       0.76396062       0.95644126      -0.00703248      -0.18512165       0.05159471      -0.07213454       0.00189326      -0.01118551
H       -0.52746968       1.24880181      -0.74807345      -0.39824022       0.02628070       0.29656273      -0.01726495       0.03498286      -0.01949485
H        1.96728114      -0.66660167      -0.50883449       0.02646339       0.53474315       0.53525241      -0.66102941       0.03584805       0.38338415
7
Lattice="13.0 0.0 0.0 0.0 9.0 0.0 0.0 0.0 9.0" Properties=species:S:1:pos:R:3:momenta:R:3:forces:R:3 EPS_SCF=1e-06 energy=-670.8769692657856 units=gap_units Integrated_spin_density=1.924e-05 opt_dir=/home/tks32/dft_pbe/apr_8_opt_fragments_subset/singlepoint_5_CH3OH time=85.0 free_energy=-670.8769692657856 cutoff=8.0 nneightol=1.2 pbc="T T T"
C       -0.68586221       0.41243058      -0.04899629      -0.93756521       1.14422777       0.15124468      -0.51564551      -0.29839737       0.19842926
O        0.84226863      -0.34987067       0.07287550       1.42762877      -0.65604770      -0.89223613       0.99623448       0.08640626      -0.59102636
H       -1.40549993      -0.32609348      -0.45838601       0.35515215       0.16433642      -0.51311865       0.15805926       0.18456573       0.06907217
H        0.79607210      -1.08061317       0.72883574      -0.46640640      -1.02841868       0.37070024       0.14808187      -0.29211491       0.13446393
H       -0.97983216       0.76398555       0.95729767      -0.00703248      -0.18512165       0.05159471      -0.03318883       0.00324458      -0.08391804
H       -0.52825086       1.24648034      -0.74620487      -0.39824022       0.02628070       0.29656273       0.02350502       0.26270977      -0.19407787
H        1.96110443      -0.66631917      -0.50542173       0.02646339       0.53474315       0.53525241      -0.77704629       0.05358593       0.46705690
7
Lattice="13.0 0.0 0.0 0.0 9.0 0.0 0.0 0.0 9.0" Properties=species:S:1:pos:R:3:momenta:R:3:forces:R:3 EPS_SCF=1e-06 energy=-670.895436191047 units=gap_units Integrated_spin_density=1.924e-05 opt_dir=/home/tks32/dft_pbe/apr_8_opt_fragments_subset/singlepoint_5_CH3OH time=85.0 free_energy=-670.895436191047 cutoff=8.0 nneightol=1.2 pbc="T T T"
C       -0.68676778       0.41587886      -0.05032158      -0.93756521       1.14422777       0.15124468      -0.70953982      -0.44421113       0.29086158
O        0.85250774      -0.35332724       0.07109382       1.42762877      -0.65604770      -0.89223613       1.17913121       0.14165203      -0.77185029
H       -1.40649098      -0.32677901      -0.45876461       0.35515215       0.16433642      -0.51311865       0.22619261       0.25050850       0.09359684
H        0.79771872      -1.07916843       0.72616916      -0.46640640      -1.02841868       0.37070024       0.20260072      -0.44170410       0.23839845
H       -0.98105538       0.76401876       0.95778960      -0.00703248      -0.18512165       0.05159471      -0.00816318       0.00629420      -0.11992727
H       -0.52887583       1.24526392      -0.74516802      -0.39824022       0.02628070       0.29656273       0.03823981       0.40771580      -0.30135786
H        1.95296351      -0.66588687      -0.50079836       0.02646339       0.53474315       0.53525241      -0.92846136       0.07974470       0.57027854
7
Lattice="13.0 0.0 0.0 0.0 9.0 0.0 0.0 0.0 9.0" Properties=species:S:1:pos:R:3:momenta:R:3:forces:R:3 EPS_SCF=1e-06 energy=-670.9314561400754 units=gap_units Integrated_spin_density=1.924e-05 opt_dir=/home/tks32/dft_pbe/apr_8_opt_fragments_subset/singlepoint_5_CH3OH time=85.0 free_energy=-670.9314561400754 cutoff=8.0 nneightol=1.2 pbc="T T T"
C       -0.68986558       0.41755317      -0.05057856      -0.93756521       1.14422777       0.15124468      -0.80492419      -0.36136331       0.25755194
O        0.86551653      -0.35598243       0.06700705       1.42762877      -0.65604770      -0.89223613       1.38536995       0.02436603      -0.81958168
H       -1.40665521      -0.32659003      -0.45880422       0.35515215       0.16433642      -0.51311865       0.21467292       0.23494706       0.08545094
H        0.79985250      -1.07928925       0.72453622      -0.46640640      -1.02841868       0.37070024       0.29505028      -0.46148981       0.21119760
H       -0.98218255       0.76406890       0.95784650      -0.00703248      -0.18512165       0.05159471      -0.00247789       0.01177099      -0.10947070
H       -0.52931527       1.24548087      -0.74520439      -0.39824022       0.02628070       0.29656273       0.02182391       0.43926500      -0.31624849
H        1.94264958      -0.66524124      -0.49480258       0.02646339       0.53474315       0.53525241      -1.10951498       0.11250403       0.69110039
7
Lattice="13.0 0.0 0.0 0.0 9.0 0.0 0.0 0.0 9.0" Properties=species:S:1:pos:R:3:momenta:R:3:forces:R:3 EPS_SCF=1e-06 energy=-670.9899749383648 units=gap_units Integrated_spin_density=1.924e-05 opt_dir=/home/tks32/dft_pbe/apr_8_opt_fragments_subset/singlepoint_5_CH3OH time=85.0 free_energy=-670.9899749383648 cutoff=8.0 nneightol=1.2 pbc="T T T"
C       -0.69529116       0.41787593      -0.04996590      -0.93756521       1.14422777       0.15124468      -0.81913375      -0.06838301       0.11252899
O        0.88176400      -0.35829225       0.06064336       1.42762877      -0.65604770      -0.89223613       1.60453006      -0.24445022      -0.74299242
H       -1.40609958      -0.32565008      -0.45855987       0.35515215       0.16433642      -0.51311865       0.12641601       0.14484364       0.04655214
H        0.80273972      -1.08091019       0.72375863      -0.46640640      -1.02841868       0.37070024       0.43298906      -0.36469370       0.05936892
H       -0.98320511       0.76415259       0.95753900      -0.00703248      -0.18512165       0.05159471      -0.01832641       0.02167930      -0.05479265
H       -0.52963925       1.24711551      -0.74627341      -0.39824022       0.02628070       0.29656273      -0.02232625       0.36699117      -0.24697586
H        1.92973139      -0.66429152      -0.48714179       0.02646339       0.53474315       0.53525241      -1.30414871       0.14401281       0.82631088
7
Lattice="13.0 0.0 0.0 0.0 9.0 0.0 0.0 0.0 9.0" Properties=species:S:1:pos:R:3:momenta:R:3:forces:R:3 EPS_SCF=1e-06 energy=-671.0837316092982 units=gap_units Integrated_spin_density=1.924e-05 opt_dir=/home/tks32/dft_pbe/apr_8_opt_fragments_subset/singlepoint_5_CH3OH time=85.0 free_energy=-671.0837316092982 cutoff=8.0 nneightol=1.2 pbc="T T T"
C       -0.70397289       0.41791911      -0.04890460      -0.93756521       1.14422777       0.15124468      -0.79546047       0.41372774      -0.11573035
O        0.90433345      -0.36156688       0.05134062       1.42762877      -0.65604770      -0.89223613       1.81554930      -0.63631077      -0.54355787
H       -1.40503861      -0.32413417      -0.45812983       0.35515215       0.16433642      -0.51311865      -0.04083612      -0.01327690      -0.02400774
H        0.80734791      -1.08398878       0.72322874      -0.46640640      -1.02841868       0.37070024       0.63809121      -0.17733456      -0.20720887
H       -0.98429151       0.76432307       0.95701314      -0.00703248      -0.18512165       0.05159471      -0.06184471       0.04206881       0.04284890
H       -0.53005022       1.25021693      -0.74832986      -0.39824022       0.02628070       0.29656273      -0.09027442       0.21850465      -0.11623630
H        1.91167187      -0.66276929      -0.47621821       0.02646339       0.53474315       0.53525241      -1.46522480       0.15262103       0.96389224
7
Lattice="13.0 0.0 0.0 0.0 9.0 0.0 0.0 0.0 9.0" Properties=species:S:1:pos:R:3:momenta:R:3:forces:R:3 EPS_SCF=1e-06 energy=-671.2197277732405 units=gap_units Integrated_spin_density=1.924e-05 opt_dir=/home/tks32/dft_pbe/apr_8_opt_fragments_subset/singlepoint_5_CH3OH time=85.0 free_energy=-671.2197277732405 cutoff=8.0 nneightol=1.2 pbc="T T T"
C       -0.71651160       0.42000815      -0.04842513      -0.93756521       1.14422777       0.15124468      -0.80809689       0.94640111      -0.33698251
O        0.93568152      -0.36795949       0.03943231       1.42762877      -0.65604770      -0.89223613       1.72150278      -0.96562595      -0.14347779
H       -1.40418906      -0.32269742      -0.45782236       0.35515215       0.16433642      -0.51311865      -0.25681546      -0.19191126      -0.11127101
H        0.81507102      -1.08791704       0.72167874      -0.46640640      -1.02841868       0.37070024       0.88639157       0.01993278      -0.50475028
H       -0.98567412       0.76470009       0.95670388      -0.00703248      -0.18512165       0.05159471      -0.14110700       0.08275814       0.16486526
H       -0.53090402       1.25437145      -0.75094289      -0.39824022       0.02628070       0.29656273      -0.16162391       0.07163927       0.01039034
H        1.88652626      -0.66050577      -0.46062455       0.02646339       0.53474315       0.53525241      -1.24025109       0.03680592       0.92122600
7
Lattice="13.0 0.0 0.0 0.0 9.0 0.0 0.0 0.0 9.0" Properties=species:S:1:pos:R:3:momenta:R:3:forces:R:3 EPS_SCF=1e-06 energy=-671.3603269133794 units=gap_units Integrated_spin_density=1.924e-05 opt_dir=/home/tks32/dft_pbe/apr_8_opt_fragments_subset/singlepoint_5_CH3OH time=85.0 free_energy=-671.3603269133794 cutoff=8.0 nneightol=1.2 pbc="T T T"
C       -0.73391275       0.42789022      -0.05001792      -0.93756521       1.14422777       0.15124468      -0.87184907       1.24679769      -0.42687093
O        0.97735192      -0.38022951       0.02673629       1.42762877      -0.65604770      -0.89223613       0.55708776      -0.82775837       0.69491806
H       -1.40492256      -0.32244990      -0.45820031       0.35515215       0.16433642      -0.51311865      -0.44342761      -0.29640854      -0.17694566
H        0.82817479      -1.09169226       0.71704252      -0.46640640      -1.02841868       0.37070024       1.11592544       0.12095469      -0.70843557
H       -0.98791210       0.76558217       0.95740904      -0.00703248      -0.18512165       0.05159471      -0.23162246       0.13849123       0.26195301
H       -0.53274326       1.25893327      -0.75347173      -0.39824022       0.02628070       0.29656273      -0.20137624       0.03696490       0.04009309
H        1.85396396      -0.65803400      -0.43949788       0.02646339       0.53474315       0.53525241       0.07526217      -0.41904160       0.31528800
7
Lattice="13.0 0.0 0.0 0.0 9.0 0.0 0.0 0.0 9.0" Properties=species:S:1:pos:R:3:momenta:R:3:forces:R:3 EPS_SCF=1e-06 energy=-671.3635825753015 units=gap_units Integrated_spin_density=1.924e-05 opt_dir=/home/tks32/dft_pbe/apr_8_opt_fragments_subset/singlepoint_5_CH3OH time=85.0 free_energy=-671.3635825753015 cutoff=8.0 nneightol=1.2 pbc="T T T"
C       -0.75822353       0.44576795      -0.05504041      -0.93756521       1.14422777       0.15124468      -0.97338475       1.00093517      -0.28547843
O        1.02323168      -0.39908835       0.01972654       1.42762877      -0.65604770      -0.89223613      -1.98790266       0.15510479       1.92182040
H       -1.40922500      -0.32459300      -0.46000183       0.35515215       0.16433642      -0.51311865      -0.47546624      -0.21193616      -0.16578136
H        0.85018429      -1.09446721       0.70672777      -0.46640640      -1.02841868       0.37070024       1.17049218      -0.04883038      -0.58403557
H       -0.99200180       0.76757450       0.96022070      -0.00703248      -0.18512165       0.05159471      -0.31046666       0.20087684       0.28508808
H       -0.53619313       1.26376230      -0.75566041      -0.39824022       0.02628070       0.29656273      -0.17561953       0.21276256      -0.10503993
H        1.82222749      -0.65895619      -0.41597236       0.02646339       0.53474315       0.53525241       2.75234766      -1.30891282      -1.06657319
7
Lattice="13.0 0.0 0.0 0.0 9.0 0.0 0.0 0.0 9.0" Properties=species:S:1:pos:R:3:momenta:R:3:forces:R:3 EPS_SCF=1e-06 energy=-671.3918516396683 units=gap_units Integrated_spin_density=1.924e-05 opt_dir=/home/tks32/dft_pbe/apr_8_opt_fragments_subset/singlepoint_5_CH3OH time=85.0 free_energy=-671.3918516396683 cutoff=8.0 nneightol=1.2 pbc="T T T"
C       -0.75952762       0.44710895      -0.05542288      -0.93756521       1.14422777       0.15124468      -0.94681871       0.93022285      -0.26190322
O        1.02056840      -0.39888055       0.02230129       1.42762877      -0.65604770      -0.89223613      -1.65063545       0.14443080       1.64776742
H       -1.40986200      -0.32487694      -0.46022393       0.35515215       0.16433642      -0.51311865      -0.46078715      -0.19107464      -0.15690825
H        0.85175245      -1.09453263       0.70594531      -0.46640640      -1.02841868       0.37070024       1.11882044      -0.12655134      -0.48872439
H       -0.99241774       0.76784362       0.96060265      -0.00703248      -0.18512165       0.05159471      -0.31260225       0.20180245       0.27788061
H       -0.53642842       1.26404734      -0.75580114      -0.39824022       0.02628070       0.29656273      -0.17460103       0.23520946      -0.12089025
H        1.82591493      -0.66070980      -0.41740129       0.02646339       0.53474315       0.53525241       2.42662414      -1.19403958      -0.89722192
7
Lattice="13.0 0.0 0.0 0.0 9.0 0.0 0.0 0.0 9.0" Properties=species:S:1:pos:R:3:momenta:R:3:forces:R:3 EPS_SCF=1e-06 energy=-671.4358799582532 units=gap_units Integrated_spin_density=1.924e-05 opt_dir=/home/tks32/dft_pbe/apr_8_opt_fragments_subset/singlepoint_5_CH3OH time=85.0 free_energy=-671.4358799582532 cutoff=8.0 nneightol=1.2 pbc="T T T"
C       -0.76211342       0.44970321      -0.05615772      -0.93756521       1.14422777       0.15124468      -0.89420751       0.79657519      -0.21727595
O        1.01570963      -0.39847812       0.02707610       1.42762877      -0.65604770      -0.89223613      -1.05395800       0.13306035       1.15424348
H       -1.41112254      -0.32541746      -0.46065784       0.35515215       0.16433642      -0.51311865      -0.43241807      -0.15146397      -0.14000269
H        0.85483244      -1.09478025       0.70451220      -0.46640640      -1.02841868       0.37070024       1.02359130      -0.26894683      -0.31442103
H       -0.99325832       0.76838681       0.96136084      -0.00703248      -0.18512165       0.05159471      -0.31605661       0.20287871       0.26323357
H       -0.53690058       1.26465469      -0.75610809      -0.39824022       0.02628070       0.29656273      -0.17225192       0.27585085      -0.14977898
H        1.83285278      -0.66406888      -0.42002548       0.02646339       0.53474315       0.53525241       1.84530081      -0.98795431      -0.59599840
7
Lattice="13.0 0.0 0.0 0.0 9.0 0.0 0.0 0.0 9.0" Properties=species:S:1:pos:R:3:momenta:R:3:forces:R:3 EPS_SCF=1e-06 energy=-671.4779863391199 units=gap_units Integrated_spin_density=1.924e-05 opt_dir=/home/tks32/dft_pbe/apr_8_opt_fragments_subset/singlepoint_5_CH3OH time=85.0 free_energy=-671.4779863391199 cutoff=8.0 nneightol=1.2 pbc="T T T"
C       -0.76596891       0.45339946      -0.05719041      -0.93756521       1.14422777       0.15124468      -0.81757311       0.61590320      -0.15685574
O        1.00953544      -0.39788852       0.03334613       1.42762877      -0.65604770      -0.89223613      -0.30365345       0.12228434       0.52579605
H       -1.41299606      -0.32616280      -0.46128764       0.35515215       0.16433642      -0.51311865      -0.39241751      -0.09707500      -0.11661097
H        0.85935384      -1.09546276       0.70268503      -0.46640640      -1.02841868       0.37070024       0.89963827      -0.44813559      -0.09394331
H       -0.99455501       0.76922241       0.96249310      -0.00703248      -0.18512165       0.05159471      -0.31951047       0.20271545       0.24070077
H       -0.53761992       1.26567275      -0.75664033      -0.39824022       0.02628070       0.29656273      -0.16826889       0.32628555      -0.18602257
H        1.84225062      -0.66878055      -0.42340586       0.02646339       0.53474315       0.53525241       1.10178517      -0.72197795      -0.21306423
7
Lattice="13.0 0.0 0.0 0.0 9.0 0.0 0.0 0.0 9.0" Properties=species:S:1:pos:R:3:momenta:R:3:forces:R:3 EPS_SCF=1e-06 energy=-671.5052866639661 units=gap_units Integrated_spin_density=1.924e-05 opt_dir=/home/tks32/dft_pbe/apr_8_opt_fragments_subset/singlepoint_5_CH3OH time=85.0 free_energy=-671.5052866639661 cutoff=8.0 nneightol=1.2 pbc="T T T"
C       -0.77113978       0.45800745      -0.05844616      -0.93756521       1.14422777       0.15124468      -0.72177231       0.41390679      -0.08947742
O        1.00334692      -0.39710348       0.04008305       1.42762877      -0.65604770      -0.89223613       0.45874589       0.10190039      -0.11371680
H       -1.41549864      -0.32703556      -0.46209706       0.35515215       0.16433642      -0.51311865      -0.34418683      -0.03366365      -0.08886702
H        0.86529476      -1.09700935       0.70084512      -0.46640640      -1.02841868       0.37070024       0.76655321      -0.61705640       0.12185596
H       -0.99638675       0.77039620       0.96401290      -0.00703248      -0.18512165       0.05159471      -0.32139068       0.19939159       0.20958589
H       -0.53861740       1.26726782      -0.75750636      -0.39824022       0.02628070       0.29656273      -0.16305493       0.37363922      -0.22053024
H        1.85300090      -0.67452310      -0.42689148       0.02646339       0.53474315       0.53525241       0.32510565      -0.43811794       0.18114962
7
Lattice="13.0 0.0 0.0 0.0 9.0 0.0 0.0 0.0 9.0" Properties=species:S:1:pos:R:3:momenta:R:3:forces:R:3 EPS_SCF=1e-06 energy=-671.5176720354724 units=gap_units Integrated_spin_density=1.924e-05 opt_dir=/home/tks32/dft_pbe/apr_8_opt_fragments_subset/singlepoint_5_CH3OH time=85.0 free_energy=-671.5176720354724 cutoff=8.0 nneightol=1.2 pbc="T T T"
C       -0.77757620       0.46317691      -0.05979733      -0.93756521       1.14422777       0.15124468      -0.61671457       0.23047001      -0.02942829
O        0.99891027      -0.39614526       0.04586543       1.42762877      -0.65604770      -0.89223613       1.05830515       0.04857041      -0.60037971
H       -1.41860103      -0.32790419      -0.46304503       0.35515215       0.16433642      -0.51311865      -0.29390332       0.02966690      -0.06013141
H        0.87253481      -1.09992529       0.69949017      -0.46640640      -1.02841868       0.37070024       0.64725502      -0.70913589       0.26577014
H       -0.99882909       0.77194506       0.96589836      -0.00703248      -0.18512165       0.05159471      -0.32017578       0.19091219       0.17018327
H       -0.53991785       1.26962621      -0.75883046      -0.39824022       0.02628070       0.29656273      -0.15870070       0.40047521      -0.24029814
H        1.86347909      -0.68077345      -0.42958113       0.02646339       0.53474315       0.53525241      -0.31606581      -0.19095883       0.49428414
7
Lattice="13.0 0.0 0.0 0.0 9.0 0.0 0.0 0.0 9.0" Properties=species:S:1:pos:R:3:momenta:R:3:forces:R:3 EPS_SCF=1e-06 energy=-671.5250966710563 units=gap_units Integrated_spin_density=1.924e-05 opt_dir=/home/tks32/dft_pbe/apr_8_opt_fragments_subset/singlepoint_5_CH3OH time=85.0 free_energy=-671.5250966710563 cutoff=8.0 nneightol=1.2 pbc="T T T"
C       -0.78480852       0.46836739      -0.06108208      -0.93756521       1.14422777       0.15124468      -0.51533814       0.09999719       0.01107484
O        0.99738761      -0.39516949       0.04966814       1.42762877      -0.65604770      -0.89223613       1.43091036      -0.06262699      -0.85738461
H       -1.42207922      -0.32861670      -0.46403856       0.35515215       0.16433642      -0.51311865      -0.24860833       0.08354783      -0.03420942
H        0.88056171      -1.10420491       0.69889108      -0.46640640      -1.02841868       0.37070024       0.55561341      -0.68824609       0.30219325
H       -1.00177457       0.77378467       0.96799252      -0.00703248      -0.18512165       0.05159471      -0.30453232       0.17166197       0.12049108
H       -0.54145870       1.27268355      -0.76058305      -0.39824022       0.02628070       0.29656273      -0.15776301       0.39617013      -0.23683948
H        1.87217169      -0.68684452      -0.43084804       0.02646339       0.53474315       0.53525241      -0.76028198      -0.00050404       0.69467434
7
Lattice="13.0 0.0 0.0 0.0 9.0 0.0 0.0 0.0 9.0" Properties=species:S:1:pos:R:3:momenta:R:3:forces:R:3 EPS_SCF=1e-06 energy=-671.5366114329636 units=gap_units Integrated_spin_density=1.924e-05 opt_dir=/home/tks32/dft_pbe/apr_8_opt_fragments_subset/singlepoint_5_CH3OH time=85.0 free_energy=-671.5366114329636 cutoff=8.0 nneightol=1.2 pbc="T T T"
C       -0.79241576       0.47325191      -0.06221475      -0.93756521       1.14422777       0.15124468      -0.42414782       0.03326281       0.02784104
O        0.99906636      -0.39442476       0.05126357       1.42762877      -0.65604770      -0.89223613       1.60072103      -0.23350138      -0.89985007
H       -1.42573936      -0.32907993      -0.46500563       0.35515215       0.16433642      -0.51311865      -0.21191216       0.12369079      -0.01307889
H        0.88896987      -1.10952317       0.69899585      -0.46640640      -1.02841868       0.37070024       0.49129675      -0.56107731       0.23858450
H       -1.00507442       0.77580612       0.97013402      -0.00703248      -0.18512165       0.05159471      -0.28872239       0.14988166       0.07087598