7
Lattice="13.0 0.0 0.0 0.0 9.0 0.0 0.0 0.0 9.0" Properties=species:S:1:pos:R:3:momenta:R:3:forces:R:3 EPS_SCF=1e-06 energy=-670.6265720584684 units=gap_units Integrated_spin_density=1.924e-05 opt_dir=/home/tks32/dft_pbe/apr_8_opt_fragments_subset/singlepoint_5_CH3OH time=70.0 free_energy=-670.6265720584684 cutoff=8.0 nneightol=1.2 pbc="T T T"
C       -0.74077499       0.25709012      -0.04760759       0.30212163       1.04325950      -0.11180103       0.38190767       0.46874891       0.62490527
O        0.44305510      -0.57219412       0.16136041      -0.33719129      -2.28674967      -0.60562987      -0.51026407      -0.21599952      -1.18435900
H       -1.52971598      -0.29917609      -0.56626730      -0.10752760       0.02920603       0.48640151       0.24461008      -0.29195914      -0.01309874
H        0.99204184      -0.15604108       0.83367259       0.31323904       0.75065177       0.50035468       0.44804143       0.31772342       0.77279760
H       -1.17666826       0.60052895       0.91983236       0.12408247       0.36934587      -0.35337080       0.16398446      -0.14078277      -0.43661088
H       -0.53083464       1.16662554      -0.66296904       0.06677977      -0.31978524      -0.22561757      -0.37791934      -0.03883839       0.05024161
H        2.54289693      -0.99683334      -0.63802144      -0.36150401       0.41407175       0.30966307      -0.35036024      -0.09889251       0.18612414
7
Lattice="13.0 0.0 0.0 0.0 9.0 0.0 0.0 0.0 9.0" Properties=species:S:1:pos:R:3:momenta:R:3:forces:R:3 EPS_SCF=1e-06 energy=-670.651170814522 units=gap_units Integrated_spin_density=1.924e-05 opt_dir=/home/tks32/dft_pbe/apr_8_opt_fragments_subset/singlepoint_5_CH3OH time=70.0 free_energy=-670.651170814522 cutoff=8.0 nneightol=1.2 pbc="T T T"
C       -0.73695591       0.26177761      -0.04135854       0.30212163       1.04325950      -0.11180103       0.13434480       0.08914656       0.06351526
O        0.43795246      -0.57435412       0.14951682      -0.33719129      -2.28674967      -0.60562987       0.18407344       0.26417983      -0.35301099
H       -1.52726988      -0.30209568      -0.56639829      -0.10752760       0.02920603       0.48640151       0.36744492      -0.12309849       0.11337025
H        0.99652225      -0.15286385       0.84140057       0.31323904       0.75065177       0.50035468      -0.05509744      -0.15424769       0.07260610
H       -1.17502842       0.59912112       0.91546625       0.12408247       0.36934587      -0.35337080       0.07164462      -0.04112300      -0.11685412
H       -0.53461383       1.16623716      -0.66246662       0.06677977      -0.31978524      -0.22561757      -0.33659348       0.06573376       0.03446634
H        2.53939333      -0.99782227      -0.63616020      -0.36150401       0.41407175       0.30966307      -0.36581686      -0.10059096       0.18590715
7
Lattice="13.0 0.0 0.0 0.0 9.0 0.0 0.0 0.0 9.0" Properties=species:S:1:pos:R:3:momenta:R:3:forces:R:3 EPS_SCF=1e-06 energy=-670.6544002479802 units=gap_units Integrated_spin_density=1.924e-05 opt_dir=/home/tks32/dft_pbe/apr_8_opt_fragments_subset/singlepoint_5_CH3OH time=70.0 free_energy=-670.6544002479802 cutoff=8.0 nneightol=1.2 pbc="T T T"
C       -0.73186700       0.26709239      -0.03495348       0.30212163       1.04325950      -0.11180103      -0.07363729      -0.27995802      -0.52451262
O        0.43562323      -0.57305007       0.13451739      -0.33719129      -2.28674967      -0.60562987       0.80249768       0.65651166       0.40134872
H       -1.52055073      -0.30623678      -0.56512231      -0.10752760       0.02920603       0.48640151       0.43464598       0.01544957       0.20998164
H        0.99987722      -0.15190078       0.84924842       0.31323904       0.75065177       0.50035468      -0.46117147      -0.54734328      -0.53770874
H       -1.17267170       0.59734848       0.91010006       0.12408247       0.36934587      -0.35337080      -0.03159844       0.06427004       0.25407054
H       -0.54215345       1.16669579      -0.66159069       0.06677977      -0.31978524      -0.22561757      -0.28203540       0.18783241       0.00823878
H        2.53174244      -0.99994904      -0.63219939      -0.36150401       0.41407175       0.30966307      -0.38870105      -0.09676238       0.18858169
7
Lattice="13.0 0.0 0.0 0.0 9.0 0.0 0.0 0.0 9.0" Properties=species:S:1:pos:R:3:momenta:R:3:forces:R:3 EPS_SCF=1e-06 energy=-670.6612503413777 units=gap_units Integrated_spin_density=1.924e-05 opt_dir=/home/tks32/dft_pbe/apr_8_opt_fragments_subset/singlepoint_5_CH3OH time=70.0 free_energy=-670.6612503413777 cutoff=8.0 nneightol=1.2 pbc="T T T"
C       -0.73205110       0.26639249      -0.03626476       0.30212163       1.04325950      -0.11180103      -0.03275188      -0.20215305      -0.40442760
O        0.43762947      -0.57140880       0.13552076      -0.33719129      -2.28674967      -0.60562987       0.67042470       0.55885037       0.23756154
H       -1.51946411      -0.30619816      -0.56459736      -0.10752760       0.02920603       0.48640151       0.39951034      -0.02549841       0.17618710
H        0.99872429      -0.15326914       0.84790415       0.31323904       0.75065177       0.50035468      -0.35881776      -0.45358066      -0.39598379
H       -1.17275070       0.59750915       0.91073523       0.12408247       0.36934587      -0.35337080      -0.00749307       0.04196344       0.19181199
H       -0.54285854       1.16716537      -0.66157010       0.06677977      -0.31978524      -0.22561757      -0.28252460       0.17496823       0.00564900
H        2.53077069      -1.00019095      -0.63172794      -0.36150401       0.41407175       0.30966307      -0.38834773      -0.09454992       0.18920177
7
Lattice="13.0 0.0 0.0 0.0 9.0 0.0 0.0 0.0 9.0" Properties=species:S:1:pos:R:3:momenta:R:3:forces:R:3 EPS_SCF=1e-06 energy=-670.6704198820053 units=gap_units Integrated_spin_density=1.924e-05 opt_dir=/home/tks32/dft_pbe/apr_8_opt_fragments_subset/singlepoint_5_CH3OH time=70.0 free_energy=-670.6704198820053 cutoff=8.0 nneightol=1.2 pbc="T T T"
C       -0.73230858       0.26519598      -0.03857848       0.30212163       1.04325950      -0.11180103       0.04218727      -0.06450685      -0.19463972
O        0.44131421      -0.56836526       0.13708965      -0.33719129      -2.28674967      -0.60562987       0.43351961       0.38438420      -0.05753068
H       -1.51736638      -0.30623487      -0.56363107      -0.10752760       0.02920603       0.48640151       0.33482575      -0.09889269       0.11538852
H        0.99668093      -0.15577199       0.84558441       0.31323904       0.75065177       0.50035468      -0.17370497      -0.28556152      -0.13944271
H       -1.17284279       0.59777138       0.91184452       0.12408247       0.36934587      -0.35337080       0.03447686       0.00282261       0.08420336
H       -0.54428500       1.16807841      -0.66153573       0.06677977      -0.31978524      -0.22561757      -0.28282736       0.15199776       0.00134446
H        2.52880762      -1.00067368      -0.63077332      -0.36150401       0.41407175       0.30966307      -0.38847716      -0.09024352       0.19067677
7
Lattice="13.0 0.0 0.0 0.0 9.0 0.0 0.0 0.0 9.0" Properties=species:S:1:pos:R:3:momenta:R:3:forces:R:3 EPS_SCF=1e-06 energy=-670.6769465945665 units=gap_units Integrated_spin_density=1.924e-05 opt_dir=/home/tks32/dft_pbe/apr_8_opt_fragments_subset/singlepoint_5_CH3OH time=70.0 free_energy=-670.6769465945665 cutoff=8.0 nneightol=1.2 pbc="T T T"
C       -0.73240074       0.26390569      -0.04130478       0.30212163       1.04325950      -0.11180103       0.13350166       0.09748188       0.04729228
O        0.44606476      -0.56435435       0.13831132      -0.33719129      -2.28674967      -0.60562987       0.15255867       0.17861092      -0.41026501
H       -1.51437067      -0.30659509      -0.56237965      -0.10752760       0.02920603       0.48640151       0.25348536      -0.18689837       0.04170402
H        0.99426721      -0.15896933       0.84303531       0.31323904       0.75065177       0.50035468       0.04872994      -0.08642221       0.16933714
H       -1.17281162       0.59801672       0.91312146       0.12408247       0.36934587      -0.35337080       0.08362663      -0.04325549      -0.03813100
H       -0.54650454       1.16940302      -0.66150034       0.06677977      -0.31978524      -0.22561757      -0.28126703       0.12454849      -0.00325650
H        2.52575560      -1.00140670      -0.62928332      -0.36150401       0.41407175       0.30966307      -0.39063523      -0.08406523       0.19331907
7
Lattice="13.0 0.0 0.0 0.0 9.0 0.0 0.0 0.0 9.0" Properties=species:S:1:pos:R:3:momenta:R:3:forces:R:3 EPS_SCF=1e-06 energy=-670.6807865367413 units=gap_units Integrated_spin_density=1.924e-05 opt_dir=/home/tks32/dft_pbe/apr_8_opt_fragments_subset/singlepoint_5_CH3OH time=70.0 free_energy=-670.6807865367413 cutoff=8.0 nneightol=1.2 pbc="T T T"
C       -0.73198741       0.26310681      -0.04358265       0.30212163       1.04325950      -0.11180103       0.20739511       0.22991590       0.23917435
O        0.45090736      -0.56008058       0.13788572      -0.33719129      -2.28674967      -0.60562987      -0.07306781       0.01405188      -0.69726071
H       -1.51073223      -0.30761405      -0.56109835      -0.10752760       0.02920603       0.48640151       0.17923719      -0.26041446      -0.02183975
H        0.99227601      -0.16216819       0.84137060       0.31323904       0.75065177       0.50035468       0.23195237       0.07418359       0.42342445
H       -1.17247269       0.59807673       0.91412895       0.12408247       0.36934587      -0.35337080       0.12628585      -0.08267370      -0.13406995
H       -0.54954769       1.17105816      -0.66148061       0.06677977      -0.31978524      -0.22561757      -0.27529067       0.10151783      -0.00661177
H        2.52155666      -1.00237892      -0.62722368      -0.36150401       0.41407175       0.30966307      -0.39651204      -0.07658105       0.19718337
7
Lattice="13.0 0.0 0.0 0.0 9.0 0.0 0.0 0.0 9.0" Properties=species:S:1:pos:R:3:momenta:R:3:forces:R:3 EPS_SCF=1e-06 energy=-670.6866029728928 units=gap_units Integrated_spin_density=1.924e-05 opt_dir=/home/tks32/dft_pbe/apr_8_opt_fragments_subset/singlepoint_5_CH3OH time=70.0 free_energy=-670.6866029728928 cutoff=8.0 nneightol=1.2 pbc="T T T"
C       -0.73090135       0.26317943      -0.04480925       0.30212163       1.04325950      -0.11180103       0.23556184       0.29319128       0.32465111
O        0.45501413      -0.55618580       0.13510200      -0.33719129      -2.28674967      -0.60562987      -0.16899419      -0.05639505      -0.82246913
H       -1.50684052      -0.30942773      -0.56002037      -0.10752760       0.02920603       0.48640151       0.13316743      -0.29642197      -0.05677278
H        0.99128255      -0.16479175       0.84133022       0.31323904       0.75065177       0.50035468       0.31688720       0.14488998       0.53783487
H       -1.17173285       0.59784610       0.91457410       0.12408247       0.36934587      -0.35337080       0.15358408      -0.10617955      -0.17724006
H       -0.55323436       1.17289732      -0.66148561       0.06677977      -0.31978524      -0.22561757      -0.26372773       0.08947327      -0.00796661
H        2.51641240      -1.00351758      -0.62469110      -0.36150401       0.41407175       0.30966307      -0.40647864      -0.06855796       0.20196259
7
Lattice="13.0 0.0 0.0 0.0 9.0 0.0 0.0 0.0 9.0" Properties=species:S:1:pos:R:3:momenta:R:3:forces:R:3 EPS_SCF=1e-06 energy=-670.6974381745176 units=gap_units Integrated_spin_density=1.924e-05 opt_dir=/home/tks32/dft_pbe/apr_8_opt_fragments_subset/singlepoint_5_CH3OH time=70.0 free_energy=-670.6974381745176 cutoff=8.0 nneightol=1.2 pbc="T T T"
C       -0.72914270       0.26421709      -0.04483654       0.30212163       1.04325950      -0.11180103       0.20949333       0.27571843       0.28924694
O        0.45814978      -0.55286753       0.12986908      -0.33719129      -2.28674967      -0.60562987      -0.11744836      -0.02129452      -0.75683455
H       -1.50289636      -0.31204307      -0.55923846      -0.10752760       0.02920603       0.48640151       0.12292878      -0.28716243      -0.05683519
H        0.99143933      -0.16667246       0.84307750       0.31323904       0.75065177       0.50035468       0.28859480       0.11455188       0.48593036
H       -1.17055766       0.59728640       0.91438694       0.12408247       0.36934587      -0.35337080       0.16343843      -0.11162426      -0.16182550
H       -0.55742696       1.17484928      -0.66151653       0.06677977      -0.31978524      -0.22561757      -0.24676500       0.09006661      -0.00717897
H        2.51043457      -1.00476974      -0.62174201      -0.36150401       0.41407175       0.30966307      -0.42024199      -0.06025571       0.20749690
7
Lattice="13.0 0.0 0.0 0.0 9.0 0.0 0.0 0.0 9.0" Properties=species:S:1:pos:R:3:momenta:R:3:forces:R:3 EPS_SCF=1e-06 energy=-670.7115582816466 units=gap_units Integrated_spin_density=1.924e-05 opt_dir=/home/tks32/dft_pbe/apr_8_opt_fragments_subset/singlepoint_5_CH3OH time=70.0 free_energy=-670.7115582816466 cutoff=8.0 nneightol=1.2 pbc="T T T"
C       -0.72683140       0.26610981      -0.04385524       0.30212163       1.04325950      -0.11180103       0.13954140       0.18739703       0.14864537
O        0.46056344      -0.54995513       0.12252754      -0.33719129      -2.28674967      -0.60562987       0.05355209       0.09855784      -0.52849875
H       -1.49891912      -0.31539549      -0.55873239      -0.10752760       0.02920603       0.48640151       0.14351184      -0.23774941      -0.02605502
H        0.99258403      -0.16796673       0.84633990       0.31323904       0.75065177       0.50035468       0.16863822       0.00372336       0.29167423
H       -1.16893163       0.59639450       0.91365575       0.12408247       0.36934587      -0.35337080       0.15780202      -0.10163105      -0.09539600
H       -0.56205844       1.17691925      -0.66156932       0.06677977      -0.31978524      -0.22561757      -0.22561759       0.10110459      -0.00438687
H        2.50359311      -1.00610623      -0.61836625      -0.36150401       0.41407175       0.30966307      -0.43742797      -0.05140235       0.21401703
7
Lattice="13.0 0.0 0.0 0.0 9.0 0.0 0.0 0.0 9.0" Properties=species:S:1:pos:R:3:momenta:R:3:forces:R:3 EPS_SCF=1e-06 energy=-670.7262637879369 units=gap_units Integrated_spin_density=1.924e-05 opt_dir=/home/tks32/dft_pbe/apr_8_opt_fragments_subset/singlepoint_5_CH3OH time=70.0 free_energy=-670.7262637879369 cutoff=8.0 nneightol=1.2 pbc="T T T"
C       -0.72388800       0.26886351      -0.04218580       0.30212163       1.04325950      -0.11180103       0.04142029       0.04051490      -0.07887878
O        0.46320442      -0.54660909       0.11277790      -0.33719129      -2.28674967      -0.60562987       0.30649128       0.27656698      -0.17811697
H       -1.49430781      -0.31983072      -0.55835372      -0.10752760       0.02920603       0.48640151       0.18381983      -0.15543988       0.02872314
H        0.99450911      -0.16923058       0.85093920       0.31323904       0.75065177       0.50035468      -0.01205221      -0.16015544      -0.00954034
H       -1.16658091       0.59503431       0.91248395       0.12408247       0.36934587      -0.35337080       0.14025177      -0.08061233       0.01418431
H       -0.56770297       1.17944325      -0.66164218       0.06677977      -0.31978524      -0.22561757      -0.19962087       0.11910400       0.00030148
H        2.49476616      -1.00767070      -0.61401935      -0.36150401       0.41407175       0.30966307      -0.46031009      -0.03997823       0.22332716
7
Lattice="13.0 0.0 0.0 0.0 9.0 0.0 0.0 0.0 9.0" Properties=species:S:1:pos:R:3:momenta:R:3:forces:R:3 EPS_SCF=1e-06 energy=-670.7404053352157 units=gap_units Integrated_spin_density=1.924e-05 opt_dir=/home/tks32/dft_pbe/apr_8_opt_fragments_subset/singlepoint_5_CH3OH time=70.0 free_energy=-670.7404053352157 cutoff=8.0 nneightol=1.2 pbc="T T T"
C       -0.72071432       0.27184357      -0.04101965       0.30212163       1.04325950      -0.11180103      -0.03798967      -0.10030076      -0.29203069
O        0.46771973      -0.54158028       0.10201210      -0.33719129      -2.28674967      -0.60562987       0.51617957       0.42498019       0.12743617
H       -1.48859930      -0.32518898      -0.55780057      -0.10752760       0.02920603       0.48640151       0.21053871      -0.07578727       0.07880437
H        0.99634242      -0.17147490       0.85543850       0.31323904       0.75065177       0.50035468      -0.15606179      -0.29143177      -0.27506740
H       -1.16338265       0.59318707       0.91141040       0.12408247       0.36934587      -0.35337080       0.12611742      -0.06484699       0.11856905
H       -0.57453335       1.18268230      -0.66171253       0.06677977      -0.31978524      -0.22561757      -0.17168455       0.13211392       0.00466632
H        2.48316746      -1.00946881      -0.60832826      -0.36150401       0.41407175       0.30966307      -0.48709970      -0.02472732       0.23762217
7
Lattice="13.0 0.0 0.0 0.0 9.0 0.0 0.0 0.0 9.0" Properties=species:S:1:pos:R:3:momenta:R:3:forces:R:3 EPS_SCF=1e-06 energy=-670.7601034042208 units=gap_units Integrated_spin_density=1.924e-05 opt_dir=/home/tks32/dft_pbe/apr_8_opt_fragments_subset/singlepoint_5_CH3OH time=70.0 free_energy=-670.7601034042208 cutoff=8.0 nneightol=1.2 pbc="T T T"
C       -0.71781929       0.27413009      -0.04181414       0.30212163       1.04325950      -0.11180103      -0.06178416      -0.15114454      -0.35869031
O        0.47564919      -0.53375077       0.09218199      -0.33719129      -2.28674967      -0.60562987       0.56070182       0.45647117       0.20169326
H       -1.48152842      -0.33101185      -0.55672511      -0.10752760       0.02920603       0.48640151       0.18694488      -0.04160859       0.08963751
H        0.99711852      -0.17564920       0.85806448       0.31323904       0.75065177       0.50035468      -0.16805775      -0.30822359      -0.34792902
H       -1.15936658       0.59092090       0.91113760       0.12408247       0.36934587      -0.35337080       0.13717835      -0.07494907       0.15151234
H       -0.58245767       1.18677892      -0.66175115       0.06677977      -0.31978524      -0.22561757      -0.14489411       0.12635217       0.00513327
H        2.46840426      -1.01141811      -0.60109368      -0.36150401       0.41407175       0.30966307      -0.51008903      -0.00689754       0.25864295
7
Lattice="13.0 0.0 0.0 0.0 9.0 0.0 0.0 0.0 9.0" Properties=species:S:1:pos:R:3:momenta:R:3:forces:R:3 EPS_SCF=1e-06 energy=-670.7893301897948 units=gap_units Integrated_spin_density=1.924e-05 opt_dir=/home/tks32/dft_pbe/apr_8_opt_fragments_subset/singlepoint_5_CH3OH time=70.0 free_energy=-670.7893301897948 cutoff=8.0 nneightol=1.2 pbc="T T T"
C       -0.71542339       0.27522788      -0.04538779       0.30212163       1.04325950      -0.11180103      -0.00178510      -0.07571416      -0.21495460
O        0.48787801      -0.52243039       0.08398382      -0.33719129      -2.28674967      -0.60562987       0.40213370       0.34378539      -0.04443954
H       -1.47305390      -0.33711852      -0.55496104      -0.10752760       0.02920603       0.48640151       0.09884798      -0.07443988       0.04407835
H        0.99658476      -0.18218815       0.85797180       0.31323904       0.75065177       0.50035468      -0.01516536      -0.18826244      -0.15565174
H       -1.15431264       0.58808817       0.91204282       0.12408247       0.36934587      -0.35337080       0.18445810      -0.12100159       0.07870679
H       -0.59145346       1.19182883      -0.66174965       0.06677977      -0.31978524      -0.22561757      -0.12029238       0.09457030      -0.00036955
H        2.44978063      -1.01340783      -0.59189997      -0.36150401       0.41407175       0.30966307      -0.54819694       0.02106237       0.29263029
7
Lattice="13.0 0.0 0.0 0.0 9.0 0.0 0.0 0.0 9.0" Properties=species:S:1:pos:R:3:momenta:R:3:forces:R:3 EPS_SCF=1e-06 energy=-670.8235176067391 units=gap_units Integrated_spin_density=1.924e-05 opt_dir=/home/tks32/dft_pbe/apr_8_opt_fragments_subset/singlepoint_5_CH3OH time=70.0 free_energy=-670.8235176067391 cutoff=8.0 nneightol=1.2 pbc="T T T"
C       -0.71305932       0.27554547      -0.05113853       0.30212163       1.04325950      -0.11180103       0.10949357       0.08126454       0.05456022
O        0.50414828      -0.50765987       0.07537782      -0.33719129      -2.28674967      -0.60562987       0.14866429       0.16025137      -0.48592603
H       -1.46361694      -0.34395154      -0.55275638      -0.10752760       0.02920603       0.48640151      -0.03358748      -0.14625620      -0.03575366
H        0.99589899      -0.19061452       0.85628853       0.31323904       0.75065177       0.50035468       0.22622150      -0.00860255       0.19139574
H       -1.14740174       0.58403457       0.91374748       0.12408247       0.36934587      -0.35337080       0.25359761      -0.19089015      -0.05886889
H       -0.60162795       1.19781685      -0.66175194       0.06677977      -0.31978524      -0.22561757      -0.09584385       0.04170222      -0.00912867
H        2.42565868      -1.01517097      -0.57976699      -0.36150401       0.41407175       0.30966307      -0.60854563       0.06253077       0.34372129
7
Lattice="13.0 0.0 0.0 0.0 9.0 0.0 0.0 0.0 9.0" Properties=species:S:1:pos:R:3:momenta:R:3:forces:R:3 EPS_SCF=1e-06 energy=-670.8687328267926 units=gap_units Integrated_spin_density=1.924e-05 opt_dir=/home/tks32/dft_pbe/apr_8_opt_fragments_subset/singlepoint_5_CH3OH time=70.0 free_energy=-670.8687328267926 cutoff=8.0 nneightol=1.2 pbc="T T T"
C       -0.70937381       0.27685043      -0.05619887       0.30212163       1.04325950      -0.11180103       0.14315238       0.14205209       0.14883783
O        0.52215251      -0.49100747       0.06089869      -0.33719129      -2.28674967      -0.60562987       0.11038013       0.10681561      -0.62401870
H       -1.45463217      -0.35253273      -0.55099693      -0.10752760       0.02920603       0.48640151      -0.12119410      -0.14719746      -0.06477697
H        0.99796907      -0.19910673       0.85694194       0.31323904       0.75065177       0.50035468       0.31953736       0.02814647       0.26390787
H       -1.13743689       0.57767688       0.91472796       0.12408247       0.36934587      -0.35337080       0.29598067      -0.24025450      -0.11623246
H       -0.61292178       1.20428471      -0.66186530       0.06677977      -0.31978524      -0.22561757      -0.06465502      -0.00556448      -0.01336568
H        2.39424306      -1.01616511      -0.56350750      -0.36150401       0.41407175       0.30966307      -0.68320142       0.11600227       0.40564812
7
Lattice="13.0 0.0 0.0 0.0 9.0 0.0 0.0 0.0 9.0" Properties=species:S:1:pos:R:3:momenta:R:3:forces:R:3 EPS_SCF=1e-06 energy=-670.9338258815583 units=gap_units Integrated_spin_density=1.924e-05 opt_dir=/home/tks32/dft_pbe/apr_8_opt_fragments_subset/singlepoint_5_CH3OH time=70.0 free_energy=-670.9338258815583 cutoff=8.0 nneightol=1.2 pbc="T T T"
C       -0.70371876       0.28011818      -0.05917977       0.30212163       1.04325950      -0.11180103       0.02818627       0.00608930      -0.09079568
O        0.54162137      -0.47293499       0.03782845      -0.33719129      -2.28674967      -0.60562987       0.35058892       0.24389978      -0.17486728
H       -1.44735796      -0.36312204      -0.55014092      -0.10752760       0.02920603       0.48640151      -0.10698945      -0.01791081      -0.00019594
H        1.00445739      -0.20717886       0.86124817       0.31323904       0.75065177       0.50035468       0.18346098      -0.13254298      -0.15756384
H       -1.12340819       0.56801430       0.91409511       0.12408247       0.36934587      -0.35337080       0.26611278      -0.23360033      -0.00460660
H       -0.62507085       1.21065246      -0.66216337       0.06677977      -0.31978524      -0.22561757      -0.02225371      -0.02628710      -0.01390379
H        2.35347699      -1.01554907      -0.54168768      -0.36150401       0.41407175       0.30966307      -0.69910579       0.16035214       0.44193312
7
Lattice="13.0 0.0 0.0 0.0 9.0 0.0 0.0 0.0 9.0" Properties=species:S:1:pos:R:3:momenta:R:3:forces:R:3 EPS_SCF=1e-06 energy=-671.0029408237835 units=gap_units Integrated_spin_density=1.924e-05 opt_dir=/home/tks32/dft_pbe/apr_8_opt_fragments_subset/singlepoint_5_CH3OH time=70.0 free_energy=-671.0029408237835 cutoff=8.0 nneightol=1.2 pbc="T T T"
C       -0.69757934       0.28348539      -0.06375947       0.30212163       1.04325950      -0.11180103      -0.12255244      -0.14869187      -0.34699111
O        0.56724358      -0.45059317       0.01172280      -0.33719129      -2.28674967      -0.60562987       0.38341753       0.35685845       0.34124501
H       -1.44199496      -0.37400146      -0.54929054      -0.10752760       0.02920603       0.48640151      -0.05938410       0.11907011       0.05950583
H        1.01417506      -0.21757551       0.86275592       0.31323904       0.75065177       0.50035468       0.09162996      -0.25615142      -0.55462070
H       -1.10470694       0.55424334       0.91338237       0.12408247       0.36934587      -0.35337080       0.14351281      -0.17061301       0.16440159
H       -0.63758292       1.21653905      -0.66270667       0.06677977      -0.31978524      -0.22561757       0.02667678      -0.02834702      -0.03230829
H        2.30044552      -1.01209767      -0.51210442      -0.36150401       0.41407175       0.30966307      -0.46330054       0.12787476       0.36876766
7
Lattice="13.0 0.0 0.0 0.0 9.0 0.0 0.0 0.0 9.0" Properties=species:S:1:pos:R:3:momenta:R:3:forces:R:3 EPS_SCF=1e-06 energy=-671.0442663954948 units=gap_units Integrated_spin_density=1.924e-05 opt_dir=/home/tks32/dft_pbe/apr_8_opt_fragments_subset/singlepoint_5_CH3OH time=70.0 free_energy=-671.0442663954948 cutoff=8.0 nneightol=1.2 pbc="T T T"
C       -0.69401330       0.28373647      -0.07559238       0.30212163       1.04325950      -0.11180103      -0.18866925      -0.00430273      -0.03956474
O        0.60084954      -0.42081835      -0.00720377      -0.33719129      -2.28674967      -0.60562987      -0.21154846       0.24267961       0.12211397
H       -1.43788251      -0.38237323      -0.54719640      -0.10752760       0.02920603       0.48640151      -0.07852824       0.06533517      -0.03788844
H        1.02579531      -0.23331600       0.85265709       0.31323904       0.75065177       0.50035468       0.26643474      -0.11427301      -0.16728084
H       -1.08303106       0.53692333       0.91611048       0.12408247       0.36934587      -0.35337080      -0.01344233      -0.08827238       0.10603416
H       -0.64951805       1.22182369      -0.66392515       0.06677977      -0.31978524      -0.22561757       0.06221759      -0.03481226      -0.08612435
H        2.23780006      -1.00597593      -0.47484987      -0.36150401       0.41407175       0.30966307       0.16353596      -0.06635440       0.10271025
7
Lattice="13.0 0.0 0.0 0.0 9.0 0.0 0.0 0.0 9.0" Properties=species:S:1:pos:R:3:momenta:R:3:forces:R:3 EPS_SCF=1e-06 energy=-671.0454479469046 units=gap_units Integrated_spin_density=1.924e-05 opt_dir=/home/tks32/dft_pbe/apr_8_opt_fragments_subset/singlepoint_5_CH3OH time=70.0 free_energy=-671.0454479469046 cutoff=8.0 nneightol=1.2 pbc="T T T"
C       -0.69466892       0.28372152      -0.07572987       0.30212163       1.04325950      -0.11180103      -0.16600440       0.00744388      -0.01850429
O        0.60011442      -0.41997505      -0.00677943      -0.33719129      -2.28674967      -0.60562987      -0.20054240       0.21987024       0.08940991
H       -1.43815539      -0.38214620      -0.54732806      -0.10752760       0.02920603       0.48640151      -0.08644801       0.05738310      -0.04214742
H        1.02672116      -0.23371309       0.85207580       0.31323904       0.75065177       0.50035468       0.26218928      -0.10258398      -0.14870828
H       -1.08307777       0.53661658       0.91647894       0.12408247       0.36934587      -0.35337080      -0.01656495      -0.08596480       0.09648925
H       -0.64930184       1.22170272      -0.66422442       0.06677977      -0.31978524      -0.22561757       0.05502251      -0.03352956      -0.08248402
H        2.23836834      -1.00620651      -0.47449296      -0.36150401       0.41407175       0.30966307       0.15234797      -0.06261888       0.10594485
7
Lattice="13.0 0.0 0.0 0.0 9.0 0.0 0.0 0.0 9.0" Properties=species:S:1:pos:R:3:momenta:R:3:forces:R:3 EPS_SCF=1e-06 energy=-671.0474886514855 units=gap_units Integrated_spin_density=1.924e-05 opt_dir=/home/tks32/dft_pbe/apr_8_opt_fragments_subset/singlepoint_5_CH3OH time=70.0 free_energy=-671.0474886514855 cutoff=8.0 nneightol=1.2 pbc="T T T"
C       -0.69589792       0.28373672      -0.07592483       0.30212163       1.04325950      -0.11180103      -0.12569598       0.02659358       0.01628148
O        0.59868093      -0.41836981      -0.00605339      -0.33719129      -2.28674967      -0.60562987      -0.17667914       0.17771791       0.03356523
H       -1.43873372      -0.38172100      -0.54760878      -0.10752760       0.02920603       0.48640151      -0.09892140       0.04462689      -0.04826087
H        1.02856359      -0.23446532       0.85098026       0.31323904       0.75065177       0.50035468       0.25165004      -0.08168723      -0.11875408
H       -1.08318357       0.53600964       0.91718194       0.12408247       0.36934587      -0.35337080      -0.02285060      -0.08091530       0.08022722