7
Lattice="13.0 0.0 0.0 0.0 9.0 0.0 0.0 0.0 9.0" Properties=species:S:1:pos:R:3:momenta:R:3:forces:R:3 EPS_SCF=1e-06 energy=-670.2035254121445 units=gap_units Integrated_spin_density=1.924e-05 opt_dir=/home/tks32/dft_pbe/apr_8_opt_fragments_subset/singlepoint_5_CH3OH time=20.0 free_energy=-670.2035254121445 cutoff=8.0 nneightol=1.2 pbc="T T T"
C       -0.63585550       0.33686847      -0.04160979      -0.84496285       0.44868463       0.31246629      -0.14282698      -1.03096183       0.08819695
O        0.27133219      -0.81740278      -0.35558676       1.73957303      -0.15782599      -0.24752712       0.34218747       1.83489667      -0.06089189
H       -1.69413225      -0.00617433       0.04773533       0.11398426       0.10914751       0.14028638       0.15383175       0.17448469       0.00079987
H        0.42967941      -1.29557466       0.46338102      -0.46444676      -0.31464001       0.30840429       0.05873815      -0.55225072       0.68517823
H       -0.36496063       0.93995524       0.85999503       0.15136123      -0.00529192      -0.24886180       0.04335743      -0.30643968      -0.09809255
H       -0.58043193       1.02298468      -0.89299313      -0.23218431       0.12557525      -0.07191341       0.04480666       0.20686709      -0.40701503
H        2.57436872      -0.18065661      -0.08092170      -0.46332459      -0.20564946      -0.19285463      -0.50009448      -0.32659623      -0.20817559
7
Lattice="13.0 0.0 0.0 0.0 9.0 0.0 0.0 0.0 9.0" Properties=species:S:1:pos:R:3:momenta:R:3:forces:R:3 EPS_SCF=1e-06 energy=-670.2499971064966 units=gap_units Integrated_spin_density=1.924e-05 opt_dir=/home/tks32/dft_pbe/apr_8_opt_fragments_subset/singlepoint_5_CH3OH time=20.0 free_energy=-670.2499971064966 cutoff=8.0 nneightol=1.2 pbc="T T T"
C       -0.63728377       0.32655885      -0.04072782      -0.84496285       0.44868463       0.31246629       0.03432001      -0.31936081      -0.16604824
O        0.27475406      -0.79905381      -0.35619568       1.73957303      -0.15782599      -0.24752712       0.60542954       1.11206103       0.62750571
H       -1.69259393      -0.00442948       0.04774333       0.11398426       0.10914751       0.14028638      -0.04617153       0.03151739       0.01387719
H        0.43026679      -1.30109717       0.47023280      -0.46444676      -0.31464001       0.30840429      -0.05616671      -0.15232942      -0.02976520
H       -0.36452706       0.93689084       0.85901410       0.15136123      -0.00529192      -0.24886180       0.01410262      -0.34282764      -0.11673865
H       -0.57998386       1.02505335      -0.89706328      -0.23218431       0.12557525      -0.07191341      -0.02331196      -0.00540426      -0.12434479
H        2.56936778      -0.18392257      -0.08300346      -0.46332459      -0.20564946      -0.19285463      -0.52820196      -0.32365628      -0.20448602
7
Lattice="13.0 0.0 0.0 0.0 9.0 0.0 0.0 0.0 9.0" Properties=species:S:1:pos:R:3:momenta:R:3:forces:R:3 EPS_SCF=1e-06 energy=-670.2902268411528 units=gap_units Integrated_spin_density=1.924e-05 opt_dir=/home/tks32/dft_pbe/apr_8_opt_fragments_subset/singlepoint_5_CH3OH time=20.0 free_energy=-670.2902268411528 cutoff=8.0 nneightol=1.2 pbc="T T T"
C       -0.63817461       0.31360827      -0.04184322      -0.84496285       0.44868463       0.31246629       0.15016473       0.57605578      -0.29439034
O        0.28479481      -0.76975357      -0.34952882       1.73957303      -0.15782599      -0.24752712       0.93925265       0.19943671       1.10075903
H       -1.69174031      -0.00249674       0.04791008       0.11398426       0.10914751       0.14028638      -0.23078925      -0.14764126       0.00487019
H        0.43014965      -1.30781887       0.47605717      -0.46444676      -0.31464001       0.30840429      -0.14817122       0.24356662      -0.62994256
H       -0.36397469       0.93019115       0.85678904       0.15136123      -0.00529192      -0.24886180      -0.03794942      -0.34037709      -0.12549413
H       -0.57984864       1.02685302      -0.90215610      -0.23218431       0.12557525      -0.07191341      -0.10353819      -0.21541119       0.13722283
H        2.55879380      -0.19058325      -0.08722816      -0.46332459      -0.20564946      -0.19285463      -0.56896930      -0.31562957      -0.19302502
7
Lattice="13.0 0.0 0.0 0.0 9.0 0.0 0.0 0.0 9.0" Properties=species:S:1:pos:R:3:momenta:R:3:forces:R:3 EPS_SCF=1e-06 energy=-670.3439923416354 units=gap_units Integrated_spin_density=1.924e-05 opt_dir=/home/tks32/dft_pbe/apr_8_opt_fragments_subset/singlepoint_5_CH3OH time=20.0 free_energy=-670.3439923416354 cutoff=8.0 nneightol=1.2 pbc="T T T"
C       -0.63717523       0.30886219      -0.04637812      -0.84496285       0.44868463       0.31246629       0.02120796       0.91094689      -0.09413261
O        0.30509725      -0.74099123      -0.33032571       1.73957303      -0.15782599      -0.24752712       1.07888596      -0.16505975       0.71767076
H       -1.69374023      -0.00252814       0.04811858       0.11398426       0.10914751       0.14028638      -0.15266895      -0.22885727      -0.04764326
H        0.42826699      -1.31094696       0.47374333      -0.46444676      -0.31464001       0.30840429      -0.13857098       0.22617909      -0.47662203
H       -0.36393274       0.92007881       0.85328126       0.15136123      -0.00529192      -0.24886180      -0.08865872      -0.20255634      -0.06309702
H       -0.58096881       1.02588899      -0.90509373      -0.23218431       0.12557525      -0.07191341      -0.12131477      -0.24010114       0.13664654
H        2.54245279      -0.20036364      -0.09334561      -0.46332459      -0.20564946      -0.19285463      -0.59888049      -0.30055148      -0.17282238
7
Lattice="13.0 0.0 0.0 0.0 9.0 0.0 0.0 0.0 9.0" Properties=species:S:1:pos:R:3:momenta:R:3:forces:R:3 EPS_SCF=1e-06 energy=-670.4097875154642 units=gap_units Integrated_spin_density=1.924e-05 opt_dir=/home/tks32/dft_pbe/apr_8_opt_fragments_subset/singlepoint_5_CH3OH time=20.0 free_energy=-670.4097875154642 cutoff=8.0 nneightol=1.2 pbc="T T T"
C       -0.63601086       0.31597020      -0.05163543      -0.84496285       0.44868463       0.31246629      -0.15510812       0.41686509       0.22380740
O        0.33684682      -0.71716704      -0.30407781       1.73957303      -0.15782599      -0.24752712       0.91678334       0.20969884      -0.14413044
H       -1.69744729      -0.00541527       0.04771107       0.11398426       0.10914751       0.14028638       0.13850476      -0.20151330      -0.11836853
H        0.42484158      -1.31093683       0.46570694      -0.46444676      -0.31464001       0.30840429      -0.09077255      -0.15573802       0.16860799
H       -0.36500251       0.90844738       0.84933605       0.15136123      -0.00529192      -0.24886180      -0.11333813       0.08187713       0.11434991
H       -0.58349243       1.02202204      -0.90603062      -0.23218431       0.12557525      -0.07191341      -0.06841075      -0.06628293      -0.09613654
H        2.52026470      -0.21292047      -0.10101020      -0.46332459      -0.20564946      -0.19285463      -0.62765855      -0.28490679      -0.14812977
7
Lattice="13.0 0.0 0.0 0.0 9.0 0.0 0.0 0.0 9.0" Properties=species:S:1:pos:R:3:momenta:R:3:forces:R:3 EPS_SCF=1e-06 energy=-670.4679898404703 units=gap_units Integrated_spin_density=1.924e-05 opt_dir=/home/tks32/dft_pbe/apr_8_opt_fragments_subset/singlepoint_5_CH3OH time=20.0 free_energy=-670.4679898404703 cutoff=8.0 nneightol=1.2 pbc="T T T"
C       -0.63717417       0.32831028      -0.05317639      -0.84496285       0.44868463       0.31246629      -0.08480453      -0.33601843       0.29367358
O        0.37849117      -0.69273579      -0.28250944       1.73957303      -0.15782599      -0.24752712       0.61520101       0.58152529      -0.46074520
H       -1.69880911      -0.01088648       0.04565683       0.11398426       0.10914751       0.14028638       0.38361326      -0.18507959      -0.15904308
H        0.42046465      -1.31314793       0.46087788      -0.46444676      -0.31464001       0.30840429      -0.06694008      -0.32337384       0.39839547
H       -0.36758105       0.89914634       0.84741555       0.15136123      -0.00529192      -0.24886180      -0.12090690       0.40255288       0.36281775
H       -0.58673895       1.01759685      -0.90824435      -0.23218431       0.12557525      -0.07191341      -0.01110153       0.14434870      -0.30695425
H        2.49134747      -0.22828326      -0.11002009      -0.46332459      -0.20564946      -0.19285463      -0.71506123      -0.28395502      -0.12814427
7
Lattice="13.0 0.0 0.0 0.0 9.0 0.0 0.0 0.0 9.0" Properties=species:S:1:pos:R:3:momenta:R:3:forces:R:3 EPS_SCF=1e-06 energy=-670.5403236664923 units=gap_units Integrated_spin_density=1.924e-05 opt_dir=/home/tks32/dft_pbe/apr_8_opt_fragments_subset/singlepoint_5_CH3OH time=20.0 free_energy=-670.5403236664923 cutoff=8.0 nneightol=1.2 pbc="T T T"
C       -0.63941217       0.33469716      -0.05043877      -0.84496285       0.44868463       0.31246629       0.25075844      -0.41531379       0.05311084
O        0.42461123      -0.66258047      -0.26956882       1.73957303      -0.15782599      -0.24752712       0.31249578       0.24144203       0.12984181
H       -1.69464712      -0.01840991       0.04157436       0.11398426       0.10914751       0.14028638       0.44077746      -0.30178278      -0.15911804
H        0.41558528      -1.31967952       0.46212696      -0.46444676      -0.31464001       0.30840429       0.03043671       0.07745678      -0.14938424
H       -0.37159981       0.89642903       0.85078266       0.15136123      -0.00529192      -0.24886180      -0.17120161       0.55351514       0.45687281
H       -0.58981673       1.01564148      -0.91454770      -0.23218431       0.12557525      -0.07191341       0.00053771       0.14344340      -0.21263011
H        2.45527933      -0.24609777      -0.11992869      -0.46332459      -0.20564946      -0.19285463      -0.86380450      -0.29876078      -0.11869307
7
Lattice="13.0 0.0 0.0 0.0 9.0 0.0 0.0 0.0 9.0" Properties=species:S:1:pos:R:3:momenta:R:3:forces:R:3 EPS_SCF=1e-06 energy=-670.6208788377768 units=gap_units Integrated_spin_density=1.924e-05 opt_dir=/home/tks32/dft_pbe/apr_8_opt_fragments_subset/singlepoint_5_CH3OH time=20.0 free_energy=-670.6208788377768 cutoff=8.0 nneightol=1.2 pbc="T T T"
C       -0.63770025       0.33427403      -0.04718572      -0.84496285       0.44868463       0.31246629       0.57126836       0.15543316      -0.09818849
O        0.47076278      -0.63185299      -0.25599288       1.73957303      -0.15782599      -0.24752712      -0.01807957      -0.25274645       0.71306335
H       -1.68435163      -0.02966530       0.03553573       0.11398426       0.10914751       0.14028638       0.42525432      -0.50229709      -0.15622686
H        0.41164612      -1.32440699       0.46103138      -0.46444676      -0.31464001       0.30840429       0.23414285       0.48365537      -0.66191161
H       -0.37776065       0.90220836       0.86060193       0.15136123      -0.00529192      -0.24886180      -0.27283733       0.45984446       0.23843919
H       -0.59257875       1.01601312      -0.92338028      -0.23218431       0.12557525      -0.07191341       0.01614263      -0.02656172       0.07934822
H        2.40998239      -0.26657023      -0.13061015      -0.46332459      -0.20564946      -0.19285463      -0.95589127      -0.31732774      -0.11452381
7
Lattice="13.0 0.0 0.0 0.0 9.0 0.0 0.0 0.0 9.0" Properties=species:S:1:pos:R:3:momenta:R:3:forces:R:3 EPS_SCF=1e-06 energy=-670.7284106904528 units=gap_units Integrated_spin_density=1.924e-05 opt_dir=/home/tks32/dft_pbe/apr_8_opt_fragments_subset/singlepoint_5_CH3OH time=20.0 free_energy=-670.7284106904528 cutoff=8.0 nneightol=1.2 pbc="T T T"
C       -0.62640000       0.33646863      -0.04561617      -0.84496285       0.44868463       0.31246629       0.39035252       0.62338293       0.09324776
O        0.51614883      -0.60568254      -0.23056307       1.73957303      -0.15782599      -0.24752712      -0.39681171      -0.15089961       0.49104327
H       -1.66700876      -0.04925389       0.02693064       0.11398426       0.10914751       0.14028638       0.54145777      -0.60499157      -0.17017951
H        0.41168329      -1.32095488       0.44881719      -0.46444676      -0.31464001       0.30840429       0.38721613       0.27211141      -0.45154343
H       -0.38844744       0.91566184       0.87433217       0.15136123      -0.00529192      -0.24886180      -0.33005650       0.28917162      -0.11648380
H       -0.59504171       1.01593443      -0.93079035      -0.23218431       0.12557525      -0.07191341       0.11346002      -0.10858168       0.24822229
H        2.34906581      -0.29217359      -0.14311042      -0.46332459      -0.20564946      -0.19285463      -0.70561822      -0.32019310      -0.09430658
7
Lattice="13.0 0.0 0.0 0.0 9.0 0.0 0.0 0.0 9.0" Properties=species:S:1:pos:R:3:momenta:R:3:forces:R:3 EPS_SCF=1e-06 energy=-670.8149799154385 units=gap_units Integrated_spin_density=1.924e-05 opt_dir=/home/tks32/dft_pbe/apr_8_opt_fragments_subset/singlepoint_5_CH3OH time=20.0 free_energy=-670.8149799154385 cutoff=8.0 nneightol=1.2 pbc="T T T"
C       -0.60708685       0.35160070      -0.04212243      -0.84496285       0.44868463       0.31246629      -0.33878410       0.36802490       0.36444906
O        0.55288322      -0.58288144      -0.19515326       1.73957303      -0.15782599      -0.24752712      -0.63325945       0.48483712      -0.33767639
H       -1.63856606      -0.08124288       0.01486497       0.11398426       0.10914751       0.14028638       0.67820648      -0.46452666      -0.14997805
H        0.41976840      -1.31187766       0.42732639      -0.46444676      -0.31464001       0.30840429       0.36043357      -0.47432770       0.27648570
H       -0.40589933       0.93500601       0.88551911       0.15136123      -0.00529192      -0.24886180      -0.27816865       0.30653377      -0.22168613
H       -0.59512450       1.01359958      -0.93297517      -0.23218431       0.12557525      -0.07191341       0.23919774       0.09334211       0.12637191
H        2.27402513      -0.32420429      -0.15745961      -0.46332459      -0.20564946      -0.19285463      -0.02762558      -0.31388355      -0.05796611
7
Lattice="13.0 0.0 0.0 0.0 9.0 0.0 0.0 0.0 9.0" Properties=species:S:1:pos:R:3:momenta:R:3:forces:R:3 EPS_SCF=1e-06 energy=-670.851184671976 units=gap_units Integrated_spin_density=1.924e-05 opt_dir=/home/tks32/dft_pbe/apr_8_opt_fragments_subset/singlepoint_5_CH3OH time=20.0 free_energy=-670.851184671976 cutoff=8.0 nneightol=1.2 pbc="T T T"
C       -0.59657242       0.37600884      -0.02935299      -0.84496285       0.44868463       0.31246629      -0.65480522      -0.03957425       0.06816459
O        0.57316598      -0.54788240      -0.16863963       1.73957303      -0.15782599      -0.24752712      -0.66737852      -0.02280563      -0.28957210
H       -1.59303350      -0.12483960      -0.00093483       0.11398426       0.10914751       0.14028638       0.24571550      -0.25470596      -0.02610756
H        0.43699086      -1.31497912       0.41306109      -0.46444676      -0.31464001       0.30840429       0.42025422      -0.27300947       0.18713941
H       -0.43031549       0.96202372       0.89095986       0.15136123      -0.00529192      -0.24886180      -0.25412085       0.51217249       0.06741445
H       -0.58910083       1.01366563      -0.93191714      -0.23218431       0.12557525      -0.07191341       0.16536374       0.38030011       0.02749041
H        2.19886542      -0.36399706      -0.17317636      -0.46332459      -0.20564946      -0.19285463       0.74497113      -0.30237729      -0.03452920
7
Lattice="13.0 0.0 0.0 0.0 9.0 0.0 0.0 0.0 9.0" Properties=species:S:1:pos:R:3:momenta:R:3:forces:R:3 EPS_SCF=1e-06 energy=-670.8618765743801 units=gap_units Integrated_spin_density=1.924e-05 opt_dir=/home/tks32/dft_pbe/apr_8_opt_fragments_subset/singlepoint_5_CH3OH time=20.0 free_energy=-670.8618765743801 cutoff=8.0 nneightol=1.2 pbc="T T T"
C       -0.59947249       0.37583357      -0.02905110      -0.84496285       0.44868463       0.31246629      -0.49989160       0.03110957       0.06701325
O        0.57021022      -0.54798341      -0.16992212       1.73957303      -0.15782599      -0.24752712      -0.65487856      -0.05038493      -0.24945906
H       -1.59194525      -0.12596767      -0.00105045       0.11398426       0.10914751       0.14028638       0.15718126      -0.27835541      -0.02523602
H        0.43885212      -1.31618825       0.41388991      -0.46444676      -0.31464001       0.30840429       0.42221207      -0.21291295       0.15012853
H       -0.43144097       0.96429208       0.89125843       0.15136123      -0.00529192      -0.24886180      -0.26893211       0.46923727       0.03242349
H       -0.58836845       1.01534994      -0.93179539      -0.23218431       0.12557525      -0.07191341       0.14254823       0.34644512       0.05689094
H        2.20216483      -0.36533626      -0.17332929      -0.46332459      -0.20564946      -0.19285463       0.70176070      -0.30513867      -0.03176113
7
Lattice="13.0 0.0 0.0 0.0 9.0 0.0 0.0 0.0 9.0" Properties=species:S:1:pos:R:3:momenta:R:3:forces:R:3 EPS_SCF=1e-06 energy=-670.8798431189132 units=gap_units Integrated_spin_density=1.924e-05 opt_dir=/home/tks32/dft_pbe/apr_8_opt_fragments_subset/singlepoint_5_CH3OH time=20.0 free_energy=-670.8798431189132 cutoff=8.0 nneightol=1.2 pbc="T T T"
C       -0.60453822       0.37582865      -0.02845020      -0.84496285       0.44868463       0.31246629      -0.23870428       0.13663879       0.06295882
O        0.56433301      -0.54832182      -0.17230180       1.73957303      -0.15782599      -0.24752712      -0.61689350      -0.08802808      -0.18421029
H       -1.59019369      -0.12835033      -0.00127849       0.11398426       0.10914751       0.14028638       0.01252955      -0.31012773      -0.02415501
H        0.44260134      -1.31832239       0.41537334      -0.46444676      -0.31464001       0.30840429       0.42018811      -0.11027578       0.08983697
H       -0.43377500       0.96863869       0.89168643       0.15136123      -0.00529192      -0.24886180      -0.29239405       0.39464913      -0.02304042
H       -0.58700905       1.01856771      -0.93140634      -0.23218431       0.12557525      -0.07191341       0.10140546       0.28749704       0.10513653
H        2.20858163      -0.36804050      -0.17362294      -0.46332459      -0.20564946      -0.19285463       0.61386869      -0.31035338      -0.02652660
7
Lattice="13.0 0.0 0.0 0.0 9.0 0.0 0.0 0.0 9.0" Properties=species:S:1:pos:R:3:momenta:R:3:forces:R:3 EPS_SCF=1e-06 energy=-670.9008556013591 units=gap_units Integrated_spin_density=1.924e-05 opt_dir=/home/tks32/dft_pbe/apr_8_opt_fragments_subset/singlepoint_5_CH3OH time=20.0 free_energy=-670.9008556013591 cutoff=8.0 nneightol=1.2 pbc="T T T"
C       -0.61040755       0.37657419      -0.02756382      -0.84496285       0.44868463       0.31246629       0.03143260       0.21097973       0.05429876
O        0.55565760      -0.54910955      -0.17545458       1.73957303      -0.15782599      -0.24752712      -0.53278071      -0.10692427      -0.11984091
H       -1.58854851      -0.13219691      -0.00161630       0.11398426       0.10914751       0.14028638      -0.12341412      -0.31865983      -0.02420403
H        0.44828190      -1.32084838       0.41720152      -0.46444676      -0.31464001       0.30840429       0.40541564       0.00493918       0.03001947
H       -0.43748049       0.97471674       0.89194516       0.15136123      -0.00529192      -0.24886180      -0.31264838       0.30797262      -0.07449152
H       -0.58522902       1.02304167      -0.93047914      -0.23218431       0.12557525      -0.07191341       0.05109815       0.21910955       0.15361250
H        2.21772607      -0.37217775      -0.17403283      -0.46332459      -0.20564946      -0.19285463       0.48089682      -0.31741698      -0.01939426
7
Lattice="13.0 0.0 0.0 0.0 9.0 0.0 0.0 0.0 9.0" Properties=species:S:1:pos:R:3:momenta:R:3:forces:R:3 EPS_SCF=1e-06 energy=-670.9219248991195 units=gap_units Integrated_spin_density=1.924e-05 opt_dir=/home/tks32/dft_pbe/apr_8_opt_fragments_subset/singlepoint_5_CH3OH time=20.0 free_energy=-670.9219248991195 cutoff=8.0 nneightol=1.2 pbc="T T T"
C       -0.61549752       0.37853673      -0.02643369      -0.84496285       0.44868463       0.31246629       0.19453954       0.18692847       0.04128491
O        0.54458820      -0.55047307      -0.17902572       1.73957303      -0.15782599      -0.24752712      -0.38728898      -0.08338845      -0.08211523
H       -1.58782335      -0.13760957      -0.00206850       0.11398426       0.10914751       0.14028638      -0.17544663      -0.26820902      -0.02683219
H        0.45587625      -1.32309153       0.41903064      -0.46444676      -0.31464001       0.30840429       0.37235892       0.10282697      -0.00581462
H       -0.44272937       0.98207230       0.89172200       0.15136123      -0.00529192      -0.24886180      -0.31606723       0.22905735      -0.09822623
H       -0.58331417       1.02840956      -0.92870428      -0.23218431       0.12557525      -0.07191341       0.00324334       0.15787995       0.18283070
H        2.22889998      -0.37784441      -0.17452046      -0.46332459      -0.20564946      -0.19285463       0.30866102      -0.32509527      -0.01112733
7
Lattice="13.0 0.0 0.0 0.0 9.0 0.0 0.0 0.0 9.0" Properties=species:S:1:pos:R:3:momenta:R:3:forces:R:3 EPS_SCF=1e-06 energy=-670.9403600817299 units=gap_units Integrated_spin_density=1.924e-05 opt_dir=/home/tks32/dft_pbe/apr_8_opt_fragments_subset/singlepoint_5_CH3OH time=20.0 free_energy=-670.9403600817299 cutoff=8.0 nneightol=1.2 pbc="T T T"
C       -0.61874414       0.38158517      -0.02513339      -0.84496285       0.44868463       0.31246629       0.18448185       0.04743772       0.02622490
O        0.53196929      -0.55227220      -0.18280298       1.73957303      -0.15782599      -0.24752712      -0.18112080      -0.01749742      -0.08118889
H       -1.58837412      -0.14432064      -0.00265952       0.11398426       0.10914751       0.14028638      -0.10805174      -0.14578597      -0.03223981
H        0.46526521      -1.32440507       0.42063698      -0.46444676      -0.31464001       0.30840429       0.32369313       0.16885949      -0.00784886
H       -0.44962128       0.99026343       0.89084742       0.15136123      -0.00529192      -0.24886180      -0.29476246       0.16633706      -0.08467817
H       -0.58156857       1.03432357      -0.92585286      -0.23218431       0.12557525      -0.07191341      -0.03378147       0.11239734       0.18230096
H        2.24107362      -0.38517425      -0.17503564      -0.46332459      -0.20564946      -0.19285463       0.10954148      -0.33174823      -0.00257012
7
Lattice="13.0 0.0 0.0 0.0 9.0 0.0 0.0 0.0 9.0" Properties=species:S:1:pos:R:3:momenta:R:3:forces:R:3 EPS_SCF=1e-06 energy=-670.9530588624721 units=gap_units Integrated_spin_density=1.924e-05 opt_dir=/home/tks32/dft_pbe/apr_8_opt_fragments_subset/singlepoint_5_CH3OH time=20.0 free_energy=-670.9530588624721 cutoff=8.0 nneightol=1.2 pbc="T T T"
C       -0.62018155       0.38471051      -0.02375209      -0.84496285       0.44868463       0.31246629       0.03770854      -0.13884374       0.01267201
O        0.51915478      -0.55403223      -0.18685584       1.73957303      -0.15782599      -0.24752712       0.06602895       0.06172057      -0.10323221
H       -1.58973931      -0.15153375      -0.00345088       0.11398426       0.10914751       0.14028638       0.03753009       0.01572557      -0.03828940
H        0.47632006      -1.32422842       0.42201951      -0.46444676      -0.31464001       0.30840429       0.27002418       0.20931541       0.01349883
H       -0.45819600       0.99897398       0.88937888       0.15136123      -0.00529192      -0.24886180      -0.25183654       0.10951751      -0.04554834
H       -0.58026937       1.04055065      -0.92181959      -0.23218431       0.12557525      -0.07191341      -0.05907913       0.07833636       0.15548431
H        2.25291140      -0.39444072      -0.17551999      -0.46332459      -0.20564946      -0.19285463      -0.10037609      -0.33577168       0.00541480
7
Lattice="13.0 0.0 0.0 0.0 9.0 0.0 0.0 0.0 9.0" Properties=species:S:1:pos:R:3:momenta:R:3:forces:R:3 EPS_SCF=1e-06 energy=-670.9602134608751 units=gap_units Integrated_spin_density=1.924e-05 opt_dir=/home/tks32/dft_pbe/apr_8_opt_fragments_subset/singlepoint_5_CH3OH time=20.0 free_energy=-670.9602134608751 cutoff=8.0 nneightol=1.2 pbc="T T T"
C       -0.62113713       0.38627847      -0.02239530      -0.84496285       0.44868463       0.31246629      -0.10483060      -0.23213521       0.00395933
O        0.50821372      -0.55506288      -0.19142898       1.73957303      -0.15782599      -0.24752712       0.29139718       0.10670504      -0.11261744
H       -1.59063149      -0.15788456      -0.00450640       0.11398426       0.10914751       0.14028638       0.15213115       0.14112292      -0.04327939
H        0.48869039      -1.32219278       0.42338483      -0.46444676      -0.31464001       0.30840429       0.22587031       0.24538019       0.02993543
H       -0.46817114       1.00779538       0.88764882       0.15136123      -0.00529192      -0.24886180      -0.20247753       0.03452245      -0.01174482
H       -0.57962978       1.04685737      -0.91679561      -0.23218431       0.12557525      -0.07191341      -0.08151097       0.03861060       0.12174432
H        2.26266545      -0.40579099      -0.17590736      -0.46332459      -0.20564946      -0.19285463      -0.28057954      -0.33420600       0.01200257
7
Lattice="13.0 0.0 0.0 0.0 9.0 0.0 0.0 0.0 9.0" Properties=species:S:1:pos:R:3:momenta:R:3:forces:R:3 EPS_SCF=1e-06 energy=-670.9667040311174 units=gap_units Integrated_spin_density=1.924e-05 opt_dir=/home/tks32/dft_pbe/apr_8_opt_fragments_subset/singlepoint_5_CH3OH time=20.0 free_energy=-670.9667040311174 cutoff=8.0 nneightol=1.2 pbc="T T T"
C       -0.62307550       0.38563333      -0.02101460      -0.84496285       0.44868463       0.31246629      -0.13455088      -0.15884618      -0.00100156
O        0.50014047      -0.55507314      -0.19702243       1.73957303      -0.15782599      -0.24752712       0.45371020       0.10514011      -0.08646628
H       -1.59007467      -0.16283597      -0.00596104       0.11398426       0.10914751       0.14028638       0.16296068       0.18418854      -0.04742901
H        0.50307513      -1.31785468       0.42501986      -0.46444676      -0.31464001       0.30840429       0.19529640       0.28818914       0.02550747
H       -0.47996321       1.01685536       0.88582488       0.15136123      -0.00529192      -0.24886180      -0.15491376      -0.07491739       0.00108003
H       -0.57976817       1.05346651      -0.91066943      -0.23218431       0.12557525      -0.07191341      -0.11001677      -0.01838812       0.09118663
H        2.26966595      -0.42019140      -0.17617723      -0.46332459      -0.20564946      -0.19285463      -0.41248588      -0.32536611       0.01712272
7
Lattice="13.0 0.0 0.0 0.0 9.0 0.0 0.0 0.0 9.0" Properties=species:S:1:pos:R:3:momenta:R:3:forces:R:3 EPS_SCF=1e-06 energy=-670.9764827741606 units=gap_units Integrated_spin_density=1.924e-05 opt_dir=/home/tks32/dft_pbe/apr_8_opt_fragments_subset/singlepoint_5_CH3OH time=20.0 free_energy=-670.9764827741606 cutoff=8.0 nneightol=1.2 pbc="T T T"
C       -0.62637266       0.38336943      -0.01965644      -0.84496285       0.44868463       0.31246629      -0.01913542       0.05047296      -0.00680321
O        0.49677914      -0.55400804      -0.20345039       1.73957303      -0.15782599      -0.24752712       0.50378596       0.08946225      -0.03272055
H       -1.58785620      -0.16585964      -0.00788780       0.11398426       0.10914751       0.14028638       0.05406847       0.13030413      -0.05176756
H        0.51932914      -1.31060790       0.42690120      -0.46444676      -0.31464001       0.30840429       0.18020292       0.31525187       0.01123630
H       -0.49323463       1.02506852       0.88402822       0.15136123      -0.00529192      -0.24886180      -0.10951205      -0.19858874       0.00245302
H       -0.58103047       1.05982878      -0.90366521      -0.23218431       0.12557525      -0.07191341      -0.14064743      -0.07831607       0.05743082
H        2.27238569      -0.43779114      -0.17626959      -0.46332459      -0.20564946      -0.19285463      -0.46876245      -0.30858640       0.02017119
7
Lattice="13.0 0.0 0.0 0.0 9.0 0.0 0.0 0.0 9.0" Properties=species:S:1:pos:R:3:momenta:R:3:forces:R:3 EPS_SCF=1e-06 energy=-670.9914460580209 units=gap_units Integrated_spin_density=1.924e-05 opt_dir=/home/tks32/dft_pbe/apr_8_opt_fragments_subset/singlepoint_5_CH3OH time=20.0 free_energy=-670.9914460580209 cutoff=8.0 nneightol=1.2 pbc="T T T"
C       -0.62986870       0.38171573      -0.01838874      -0.84496285       0.44868463       0.31246629       0.13722842       0.23468132      -0.01989342
O        0.49935823      -0.55190103      -0.21021226       1.73957303      -0.15782599      -0.24752712       0.41927145       0.11688733       0.01234500
H       -1.58502034      -0.16732998      -0.01040723       0.11398426       0.10914751       0.14028638      -0.09349541       0.02808854      -0.05741448
H        0.53757167      -1.29971686       0.42889975      -0.46444676      -0.31464001       0.30840429       0.17589129       0.28735078       0.02055207
H       -0.50768799       1.03088622       0.88227440       0.15136123      -0.00529192      -0.24886180      -0.05387623      -0.28330756       0.03127072