7
Lattice="13.0 0.0 0.0 0.0 9.0 0.0 0.0 0.0 9.0" Properties=species:S:1:pos:R:3:momenta:R:3:forces:R:3 EPS_SCF=1e-06 energy=-670.886145784575 units=gap_units Integrated_spin_density=1.924e-05 opt_dir=/home/tks32/dft_pbe/apr_8_opt_fragments_subset/singlepoint_5_CH3OH time=80.0 free_energy=-670.886145784575 cutoff=8.0 nneightol=1.2 pbc="T T T"
C       -0.68330204       0.35536426      -0.06575381      -0.31755189       0.20554123      -0.72739919       0.38672020      -0.79668979       1.02130473
O        0.69993763      -0.42404516       0.03926088       0.81008310      -0.91349911      -1.00947518      -1.55133336       1.36140503      -1.12138439
H       -1.44480857      -0.31570513      -0.52236328      -0.18886903       0.28104581       0.54177865       0.13731432       0.17218991       0.20547067
H        0.81094700      -0.79433733       0.91024323       0.07114053      -0.47466848       0.82710319       0.28594222      -0.58676237       0.77402327
H       -1.03128292       0.69541028       0.94128761       0.25883444       0.18186623      -0.11931727       0.13040586      -0.25533422      -0.52127414
H       -0.51064710       1.23427576      -0.69250141      -0.44120399       0.03986781       0.11509125       0.20652967       0.26096981      -0.45801438
H        2.15915599      -0.75096269      -0.61017323      -0.19243317       0.67984652       0.37221854       0.40442109      -0.15577837       0.09987423
7
Lattice="13.0 0.0 0.0 0.0 9.0 0.0 0.0 0.0 9.0" Properties=species:S:1:pos:R:3:momenta:R:3:forces:R:3 EPS_SCF=1e-06 energy=-670.949218450837 units=gap_units Integrated_spin_density=1.924e-05 opt_dir=/home/tks32/dft_pbe/apr_8_opt_fragments_subset/singlepoint_5_CH3OH time=80.0 free_energy=-670.949218450837 cutoff=8.0 nneightol=1.2 pbc="T T T"
C       -0.67943484       0.34739736      -0.05554076      -0.31755189       0.20554123      -0.72739919       0.38337142      -0.21036967       0.15232524
O        0.68442430      -0.41043111       0.02804704       0.81008310      -0.91349911      -1.00947518      -1.19371353       0.66616112       0.18708416
H       -1.44343543      -0.31398323      -0.52030857      -0.18886903       0.28104581       0.54177865       0.06697101       0.11424898       0.22132944
H        0.81380642      -0.80020495       0.91798346       0.07114053      -0.47466848       0.82710319       0.14414972      -0.11263166      -0.34675092
H       -1.02997886       0.69285694       0.93607487       0.25883444       0.18186623      -0.11931727       0.03997577      -0.16409708      -0.14493797
H       -0.50858180       1.23688546      -0.69708155      -0.44120399       0.03986781       0.11509125       0.07514112      -0.13697398      -0.11604488
H        2.16320020      -0.75252047      -0.60917449      -0.19243317       0.67984652       0.37221854       0.48410449      -0.15633770       0.04699493
7
Lattice="13.0 0.0 0.0 0.0 9.0 0.0 0.0 0.0 9.0" Properties=species:S:1:pos:R:3:momenta:R:3:forces:R:3 EPS_SCF=1e-06 energy=-670.9761972273942 units=gap_units Integrated_spin_density=1.924e-05 opt_dir=/home/tks32/dft_pbe/apr_8_opt_fragments_subset/singlepoint_5_CH3OH time=80.0 free_energy=-670.9761972273942 cutoff=8.0 nneightol=1.2 pbc="T T T"
C       -0.67140612       0.33773137      -0.04454187      -0.31755189       0.20554123      -0.72739919       0.24339226       0.35103003      -0.69113911
O        0.65630034      -0.39027528       0.02017410       0.81008310      -0.91349911      -1.00947518      -0.54482832      -0.09552794       1.24155565
H       -1.44140507      -0.31107810      -0.51583353      -0.18886903       0.28104581       0.54177865      -0.03299422       0.05314051       0.21448345
H        0.81809006      -0.80682205       0.92083590       0.07114053      -0.47466848       0.82710319      -0.08004286       0.33876801      -1.25044349
H       -1.02833094       0.68861212       0.92966389       0.25883444       0.18186623      -0.11931727      -0.06350678      -0.03096616       0.27698229
H       -0.50583158       1.23760916      -0.70258041      -0.44120399       0.03986781       0.11509125      -0.06643385      -0.46193416       0.20040013
H        2.17258330      -0.75577723      -0.60771808      -0.19243317       0.67984652       0.37221854       0.54441378      -0.15451030       0.00816108
7
Lattice="13.0 0.0 0.0 0.0 9.0 0.0 0.0 0.0 9.0" Properties=species:S:1:pos:R:3:momenta:R:3:forces:R:3 EPS_SCF=1e-06 energy=-670.9873619240872 units=gap_units Integrated_spin_density=1.924e-05 opt_dir=/home/tks32/dft_pbe/apr_8_opt_fragments_subset/singlepoint_5_CH3OH time=80.0 free_energy=-670.9873619240872 cutoff=8.0 nneightol=1.2 pbc="T T T"
C       -0.67079764       0.33860895      -0.04626971      -0.31755189       0.20554123      -0.72739919       0.20296712       0.27755823      -0.51416801
O        0.65493827      -0.39051410       0.02327799       0.81008310      -0.91349911      -1.00947518      -0.53812474       0.00562456       0.97549673
H       -1.44148755      -0.31094525      -0.51529733      -0.18886903       0.28104581       0.54177865      -0.03007024       0.05710084       0.20233132
H        0.81788996      -0.80597513       0.91770979       0.07114053      -0.47466848       0.82710319      -0.06941086       0.25349300      -1.03421777
H       -1.02848971       0.68853470       0.93035635       0.25883444       0.18186623      -0.11931727      -0.04462470      -0.04231533       0.20527981
H       -0.50599766       1.23645432      -0.70207941      -0.44120399       0.03986781       0.11509125      -0.04608436      -0.39990811       0.14663363
H        2.17394433      -0.75616351      -0.60769768      -0.19243317       0.67984652       0.37221854       0.52534778      -0.15155319       0.01864430
7
Lattice="13.0 0.0 0.0 0.0 9.0 0.0 0.0 0.0 9.0" Properties=species:S:1:pos:R:3:momenta:R:3:forces:R:3 EPS_SCF=1e-06 energy=-671.002220405446 units=gap_units Integrated_spin_density=1.924e-05 opt_dir=/home/tks32/dft_pbe/apr_8_opt_fragments_subset/singlepoint_5_CH3OH time=80.0 free_energy=-671.002220405446 cutoff=8.0 nneightol=1.2 pbc="T T T"
C       -0.66968108       0.34017677      -0.04926601      -0.31755189       0.20554123      -0.72739919       0.13014267       0.13955218      -0.20224295
O        0.65220402      -0.39071327       0.02880585       0.81008310      -0.91349911      -1.00947518      -0.52320526       0.18969807       0.48856518
H       -1.44164608      -0.31066562      -0.51424759      -0.18886903       0.28104581       0.54177865      -0.02552323       0.06455934       0.18066281
H        0.81751530      -0.80450235       0.91199734       0.07114053      -0.47466848       0.82710319      -0.04714756       0.09512278      -0.63720374
H       -1.02875769       0.68834642       0.93155496       0.25883444       0.18186623      -0.11931727      -0.01255964      -0.05932357       0.08264635
H       -0.50627632       1.23429401      -0.70121749      -0.44120399       0.03986781       0.11509125      -0.01009769      -0.28424072       0.04883906
H        2.17664184      -0.75693597      -0.60762706      -0.19243317       0.67984652       0.37221854       0.48839071      -0.14536807       0.03873329
7
Lattice="13.0 0.0 0.0 0.0 9.0 0.0 0.0 0.0 9.0" Properties=species:S:1:pos:R:3:momenta:R:3:forces:R:3 EPS_SCF=1e-06 energy=-671.0119083223392 units=gap_units Integrated_spin_density=1.924e-05 opt_dir=/home/tks32/dft_pbe/apr_8_opt_fragments_subset/singlepoint_5_CH3OH time=80.0 free_energy=-671.0119083223392 cutoff=8.0 nneightol=1.2 pbc="T T T"
C       -0.66824122       0.34205423      -0.05263861      -0.31755189       0.20554123      -0.72739919       0.03968774      -0.03805227       0.16391392
O        0.64799455      -0.39025852       0.03541379       0.81008310      -0.91349911      -1.00947518      -0.49063161       0.40900219      -0.10853328
H       -1.44187406      -0.31019819      -0.51269903      -0.18886903       0.28104581       0.54177865      -0.02279402       0.07369723       0.15403203
H        0.81702053      -0.80285893       0.90472648       0.07114053      -0.47466848       0.82710319      -0.01685789      -0.10181914      -0.15008785
H       -1.02904084       0.68797869       0.93290994       0.25883444       0.18186623      -0.11931727       0.02257645      -0.07246567      -0.05356781
H       -0.50656085       1.23139975      -0.70027854      -0.44120399       0.03986781       0.11509125       0.03137663      -0.13490025      -0.07176142
H        2.18070188      -0.75811703      -0.60743404      -0.19243317       0.67984652       0.37221854       0.43664271      -0.13546208       0.06600442
7
Lattice="13.0 0.0 0.0 0.0 9.0 0.0 0.0 0.0 9.0" Properties=species:S:1:pos:R:3:momenta:R:3:forces:R:3 EPS_SCF=1e-06 energy=-671.0148525821027 units=gap_units Integrated_spin_density=1.924e-05 opt_dir=/home/tks32/dft_pbe/apr_8_opt_fragments_subset/singlepoint_5_CH3OH time=80.0 free_energy=-671.0148525821027 cutoff=8.0 nneightol=1.2 pbc="T T T"
C       -0.66678737       0.34359246      -0.05502148      -0.31755189       0.20554123      -0.72739919      -0.04480929      -0.19863555       0.45835619
O        0.64225303      -0.38822117       0.04092892       0.81008310      -0.91349911      -1.00947518      -0.41682896       0.57310452      -0.61563154
H       -1.44216997      -0.30948415      -0.51069218      -0.18886903       0.28104581       0.54177865      -0.02840699       0.07973373       0.12875804
H        0.81650813      -0.80178516       0.89758527       0.07114053      -0.47466848       0.82710319       0.00699475      -0.26892646       0.26000537
H       -1.02920581       0.68735928       0.93391618       0.25883444       0.18186623      -0.11931727       0.04687047      -0.07073100      -0.15110858
H       -0.50669204       1.22825793      -0.69971913      -0.44120399       0.03986781       0.11509125       0.06064181       0.00654449      -0.17609527
H        2.18609401      -0.75971920      -0.60699759      -0.19243317       0.67984652       0.37221854       0.37553820      -0.12108972       0.09571579
7
Lattice="13.0 0.0 0.0 0.0 9.0 0.0 0.0 0.0 9.0" Properties=species:S:1:pos:R:3:momenta:R:3:forces:R:3 EPS_SCF=1e-06 energy=-671.0157858701357 units=gap_units Integrated_spin_density=1.924e-05 opt_dir=/home/tks32/dft_pbe/apr_8_opt_fragments_subset/singlepoint_5_CH3OH time=80.0 free_energy=-671.0157858701357 cutoff=8.0 nneightol=1.2 pbc="T T T"
C       -0.66681537       0.34346831      -0.05473501      -0.31755189       0.20554123      -0.72739919      -0.04114026      -0.18820313       0.43496126
O        0.64199251      -0.38786298       0.04054415       0.81008310      -0.91349911      -1.00947518      -0.40697529       0.55340904      -0.57960920
H       -1.44218772      -0.30943432      -0.51061171      -0.18886903       0.28104581       0.54177865      -0.03071294       0.07842145       0.12939628
H        0.81651251      -0.80195324       0.89774777       0.07114053      -0.47466848       0.82710319       0.00252889      -0.25531711       0.22967533
H       -1.02917652       0.68731507       0.93382174       0.25883444       0.18186623      -0.11931727       0.04405732      -0.06775511      -0.14073390
H       -0.50665414       1.22826202      -0.69982919      -0.44120399       0.03986781       0.11509125       0.05665826      -0.00001726      -0.16885816
H        2.18632872      -0.75979488      -0.60693777      -0.19243317       0.67984652       0.37221854       0.37558402      -0.12053789       0.09516839
7
Lattice="13.0 0.0 0.0 0.0 9.0 0.0 0.0 0.0 9.0" Properties=species:S:1:pos:R:3:momenta:R:3:forces:R:3 EPS_SCF=1e-06 energy=-671.0174957023937 units=gap_units Integrated_spin_density=1.924e-05 opt_dir=/home/tks32/dft_pbe/apr_8_opt_fragments_subset/singlepoint_5_CH3OH time=80.0 free_energy=-671.0174957023937 cutoff=8.0 nneightol=1.2 pbc="T T T"
C       -0.66686897       0.34322667      -0.05417693      -0.31755189       0.20554123      -0.72739919      -0.03402725      -0.16804313       0.38952160
O        0.64147711      -0.38715860       0.03979776       0.81008310      -0.91349911      -1.00947518      -0.38763712       0.51517482      -0.51010711
H       -1.44222490      -0.30933533      -0.51044996      -0.18886903       0.28104581       0.54177865      -0.03522261       0.07585694       0.13061417
H        0.81651819      -0.80228075       0.89805257       0.07114053      -0.47466848       0.82710319      -0.00612694      -0.22901832       0.17119235
H       -1.02911974       0.68722852       0.93363960       0.25883444       0.18186623      -0.11931727       0.03859410      -0.06191833      -0.12054837
H       -0.50658091       1.22826569      -0.70004480      -0.44120399       0.03986781       0.11509125       0.04887716      -0.01262563      -0.15483094
H        2.18679922      -0.75994620      -0.60681824      -0.19243317       0.67984652       0.37221854       0.37554266      -0.11942634       0.09415830
7
Lattice="13.0 0.0 0.0 0.0 9.0 0.0 0.0 0.0 9.0" Properties=species:S:1:pos:R:3:momenta:R:3:forces:R:3 EPS_SCF=1e-06 energy=-671.0197063778933 units=gap_units Integrated_spin_density=1.924e-05 opt_dir=/home/tks32/dft_pbe/apr_8_opt_fragments_subset/singlepoint_5_CH3OH time=80.0 free_energy=-671.0197063778933 cutoff=8.0 nneightol=1.2 pbc="T T T"
C       -0.66694323       0.34288072      -0.05337688      -0.31755189       0.20554123      -0.72739919      -0.02393418      -0.13953396       0.32476131
O        0.64071691      -0.38613081       0.03873603       0.81008310      -0.91349911      -1.00947518      -0.35952165       0.46069325      -0.41217696
H       -1.44228529      -0.30918826      -0.51020454      -0.18886903       0.28104581       0.54177865      -0.04173386       0.07215464       0.13229003
H        0.81651861      -0.80275059       0.89845776       0.07114053      -0.47466848       0.82710319      -0.01842950      -0.19186028       0.08887044
H       -1.02903914       0.68710328       0.93338351       0.25883444       0.18186623      -0.11931727       0.03081651      -0.05345560      -0.09170302
H       -0.50647765       1.22825934      -0.70035722      -0.44120399       0.03986781       0.11509125       0.03766825      -0.03026496      -0.13489993
H        2.18750977      -0.76017369      -0.60663867      -0.19243317       0.67984652       0.37221854       0.37513443      -0.11773309       0.09285814
7
Lattice="13.0 0.0 0.0 0.0 9.0 0.0 0.0 0.0 9.0" Properties=species:S:1:pos:R:3:momenta:R:3:forces:R:3 EPS_SCF=1e-06 energy=-671.022091116459 units=gap_units Integrated_spin_density=1.924e-05 opt_dir=/home/tks32/dft_pbe/apr_8_opt_fragments_subset/singlepoint_5_CH3OH time=80.0 free_energy=-671.022091116459 cutoff=8.0 nneightol=1.2 pbc="T T T"
C       -0.66703053       0.34245003      -0.05237909      -0.31755189       0.20554123      -0.72739919      -0.01173217      -0.10458135       0.24479963
O        0.63972526      -0.38481180       0.03742798       0.81008310      -0.91349911      -1.00947518      -0.32348703       0.39325719      -0.29325527
H       -1.44237533      -0.30899418      -0.50987052      -0.18886903       0.28104581       0.54177865      -0.04994594       0.06747517       0.13423358
H        0.81650324      -0.80333754       0.89889843       0.07114053      -0.47466848       0.82710319      -0.03358647      -0.14654661      -0.01095788
H       -1.02894024       0.68694485       0.93307460       0.25883444       0.18186623      -0.11931727       0.02124870      -0.04273460      -0.05597529
H       -0.50635249       1.22822774      -0.70075377      -0.44120399       0.03986781       0.11509125       0.02358265      -0.05145494      -0.11037381
H        2.18847009      -0.76047911      -0.60639765      -0.19243317       0.67984652       0.37221854       0.37392026      -0.11541487       0.09152904
7
Lattice="13.0 0.0 0.0 0.0 9.0 0.0 0.0 0.0 9.0" Properties=species:S:1:pos:R:3:momenta:R:3:forces:R:3 EPS_SCF=1e-06 energy=-671.0243558897082 units=gap_units Integrated_spin_density=1.924e-05 opt_dir=/home/tks32/dft_pbe/apr_8_opt_fragments_subset/singlepoint_5_CH3OH time=80.0 free_energy=-671.0243558897082 cutoff=8.0 nneightol=1.2 pbc="T T T"
C       -0.66712048       0.34196096      -0.05124361      -0.31755189       0.20554123      -0.72739919       0.00129878      -0.06560074       0.15529717
O        0.63851897      -0.38324321       0.03596626       0.81008310      -0.91349911      -1.00947518      -0.28057877       0.31719857      -0.16315503
H       -1.44250482      -0.30875405      -0.50943968      -0.18886903       0.28104581       0.54177865      -0.05944988       0.06201991       0.13617610
H        0.81645682      -0.80400795       0.89928441       0.07114053      -0.47466848       0.82710319      -0.05056030      -0.09666007      -0.11998128
H       -1.02883062       0.68676081       0.93274228       0.25883444       0.18186623      -0.11931727       0.01063699      -0.03028721      -0.01586732
H       -0.50621698       1.22814939      -0.70121773      -0.44120399       0.03986781       0.11509125       0.00736748      -0.07427035      -0.08299264
H        2.18969711      -0.76086596      -0.60609194      -0.19243317       0.67984652       0.37221854       0.37128570      -0.11240011       0.09052299
7
Lattice="13.0 0.0 0.0 0.0 9.0 0.0 0.0 0.0 9.0" Properties=species:S:1:pos:R:3:momenta:R:3:forces:R:3 EPS_SCF=1e-06 energy=-671.02632283805 units=gap_units Integrated_spin_density=1.924e-05 opt_dir=/home/tks32/dft_pbe/apr_8_opt_fragments_subset/singlepoint_5_CH3OH time=80.0 free_energy=-671.02632283805 cutoff=8.0 nneightol=1.2 pbc="T T T"
C       -0.66720000       0.34144828      -0.05005000      -0.31755189       0.20554123      -0.72739919       0.01361805      -0.02566267       0.06378337
O        0.63712315      -0.38148084       0.03447035       0.81008310      -0.91349911      -1.00947518      -0.23236526       0.23816965      -0.03424234
H       -1.44268708      -0.30846938      -0.50890140      -0.18886903       0.28104581       0.54177865      -0.06969128       0.05604146       0.13776299
H        0.81635915      -0.80471816       0.89949916       0.07114053      -0.47466848       0.82710319      -0.06803589      -0.04674674      -0.22780554
H       -1.02872020       0.68656169       0.93242566       0.25883444       0.18186623      -0.11931727       0.00000440      -0.01687574       0.02521271
H       -0.50608687       1.22799677      -0.70172704      -0.44120399       0.03986781       0.11509125      -0.00998038      -0.09633187      -0.05498925
H        2.19121184      -0.76133836      -0.60571674      -0.19243317       0.67984652       0.37221854       0.36645036      -0.10859409       0.09027806
7
Lattice="13.0 0.0 0.0 0.0 9.0 0.0 0.0 0.0 9.0" Properties=species:S:1:pos:R:3:momenta:R:3:forces:R:3 EPS_SCF=1e-06 energy=-671.0279866096728 units=gap_units Integrated_spin_density=1.924e-05 opt_dir=/home/tks32/dft_pbe/apr_8_opt_fragments_subset/singlepoint_5_CH3OH time=80.0 free_energy=-671.0279866096728 cutoff=8.0 nneightol=1.2 pbc="T T T"
C       -0.66725497       0.34095559      -0.04889800      -0.31755189       0.20554123      -0.72739919       0.02344961       0.01164212      -0.02051015
O        0.63558364      -0.37960436       0.03308229       0.81008310      -0.91349911      -1.00947518      -0.18114394       0.16302720       0.07927387
H       -1.44293607      -0.30814486      -0.50824900      -0.18886903       0.28104581       0.54177865      -0.07992775       0.04987621       0.13860684
H        0.81618831      -0.80541435       0.89941472       0.07114053      -0.47466848       0.82710319      -0.08444237      -0.00210437      -0.32256880
H       -1.02862082       0.68636191       0.93217143       0.25883444       0.18186623      -0.11931727      -0.00937730      -0.00354809       0.06297890
H       -0.50598194       1.22774198      -0.70225245      -0.44120399       0.03986781       0.11509125      -0.02718369      -0.11496691      -0.02903216
H        2.19302184      -0.76189592      -0.60526900      -0.19243317       0.67984652       0.37221854       0.35862544      -0.10392616       0.09125149
7
Lattice="13.0 0.0 0.0 0.0 9.0 0.0 0.0 0.0 9.0" Properties=species:S:1:pos:R:3:momenta:R:3:forces:R:3 EPS_SCF=1e-06 energy=-671.0296532153727 units=gap_units Integrated_spin_density=1.924e-05 opt_dir=/home/tks32/dft_pbe/apr_8_opt_fragments_subset/singlepoint_5_CH3OH time=80.0 free_energy=-671.0296532153727 cutoff=8.0 nneightol=1.2 pbc="T T T"
C       -0.66727542       0.34048468      -0.04778723      -0.31755189       0.20554123      -0.72739919       0.02967427       0.04599991      -0.09521844
O        0.63379714      -0.37751050       0.03182293       0.81008310      -0.91349911      -1.00947518      -0.12432556       0.09205578       0.17257641
H       -1.44329834      -0.30775134      -0.50740236      -0.18886903       0.28104581       0.54177865      -0.09030071       0.04326263       0.13830927
H        0.81589686      -0.80610662       0.89886389       0.07114053      -0.47466848       0.82710319      -0.09961362       0.03565090      -0.40029876
H       -1.02853601       0.68615899       0.93201098       0.25883444       0.18186623      -0.11931727      -0.01689471       0.00979622       0.09612164
H       -0.50591744       1.22732320      -0.70281466      -0.44120399       0.03986781       0.11509125      -0.04451296      -0.12897320      -0.00558968
H        2.19533321      -0.76259843      -0.60469356      -0.19243317       0.67984652       0.37221854       0.34597330      -0.09779224       0.09409955
7
Lattice="13.0 0.0 0.0 0.0 9.0 0.0 0.0 0.0 9.0" Properties=species:S:1:pos:R:3:momenta:R:3:forces:R:3 EPS_SCF=1e-06 energy=-671.031579701968 units=gap_units Integrated_spin_density=1.924e-05 opt_dir=/home/tks32/dft_pbe/apr_8_opt_fragments_subset/singlepoint_5_CH3OH time=80.0 free_energy=-671.031579701968 cutoff=8.0 nneightol=1.2 pbc="T T T"
C       -0.66724700       0.34009345      -0.04684259      -0.31755189       0.20554123      -0.72739919       0.02997905       0.07302270      -0.14849027
O        0.63182253      -0.37528422       0.03085797       0.81008310      -0.91349911      -1.00947518      -0.06470898       0.03373787       0.22833147
H       -1.44380557      -0.30729033      -0.50633629      -0.18886903       0.28104581       0.54177865      -0.09977035       0.03657349       0.13632719
H        0.81544455      -0.80673423       0.89766111       0.07114053      -0.47466848       0.82710319      -0.11151608       0.05986390      -0.44660229
H       -1.02847969       0.68597395       0.93200967       0.25883444       0.18186623      -0.11931727      -0.02076587       0.02179299       0.11897307
H       -0.50592655       1.22669653      -0.70338104      -0.44120399       0.03986781       0.11509125      -0.06039628      -0.13501185       0.01200133
H        2.19819171      -0.76345516      -0.60396883      -0.19243317       0.67984652       0.37221854       0.32717851      -0.08997911       0.09945950
7
Lattice="13.0 0.0 0.0 0.0 9.0 0.0 0.0 0.0 9.0" Properties=species:S:1:pos:R:3:momenta:R:3:forces:R:3 EPS_SCF=1e-06 energy=-671.0340619057044 units=gap_units Integrated_spin_density=1.924e-05 opt_dir=/home/tks32/dft_pbe/apr_8_opt_fragments_subset/singlepoint_5_CH3OH time=80.0 free_energy=-671.0340619057044 cutoff=8.0 nneightol=1.2 pbc="T T T"
C       -0.66716275       0.33984180      -0.04618295      -0.31755189       0.20554123      -0.72739919       0.02242993       0.08839649      -0.16924167
O        0.62974236      -0.37301225       0.03032745       0.81008310      -0.91349911      -1.00947518      -0.00577020      -0.00359179       0.23097625
H       -1.44449537      -0.30676454      -0.50502367      -0.18886903       0.28104581       0.54177865      -0.10716231       0.03020925       0.13220131
H        0.81478728      -0.80724501       0.89563273       0.07114053      -0.47466848       0.82710319      -0.11803969       0.06420566      -0.44853795
H       -1.02846263       0.68583110       0.93223082       0.25883444       0.18186623      -0.11931727      -0.01924365       0.03109715       0.12614787
H       -0.50604851       1.22582232      -0.70392056      -0.44120399       0.03986781       0.11509125      -0.07326702      -0.13003106       0.02058746
H        2.20163959      -0.76447343      -0.60306381      -0.19243317       0.67984652       0.37221854       0.30105295      -0.08028570       0.10786673
7
Lattice="13.0 0.0 0.0 0.0 9.0 0.0 0.0 0.0 9.0" Properties=species:S:1:pos:R:3:momenta:R:3:forces:R:3 EPS_SCF=1e-06 energy=-671.0372176283715 units=gap_units Integrated_spin_density=1.924e-05 opt_dir=/home/tks32/dft_pbe/apr_8_opt_fragments_subset/singlepoint_5_CH3OH time=80.0 free_energy=-671.0372176283715 cutoff=8.0 nneightol=1.2 pbc="T T T"
C       -0.66702949       0.33978719      -0.04590176      -0.31755189       0.20554123      -0.72739919       0.00600374       0.08806325      -0.14893426
O        0.62766345      -0.37076352       0.03031092       0.81008310      -0.91349911      -1.00947518       0.04845756      -0.01272229       0.16889024
H       -1.44541734      -0.30617553      -0.50342774      -0.18886903       0.28104581       0.54177865      -0.11121411       0.02457306       0.12565338
H        0.81387358      -0.80761047       0.89262680       0.07114053      -0.47466848       0.82710319      -0.11716366       0.04336450      -0.39626882
H       -1.02848820       0.68575793       0.93272924       0.25883444       0.18186623      -0.11931727      -0.01085306       0.03665126       0.11344669
H       -0.50633155       1.22466664      -0.70441095      -0.44120399       0.03986781       0.11509125      -0.08185494      -0.11141367       0.01753175
H        2.20572955      -0.76566226      -0.60192652      -0.19243317       0.67984652       0.37221854       0.26662448      -0.06851612       0.11968101
7
Lattice="13.0 0.0 0.0 0.0 9.0 0.0 0.0 0.0 9.0" Properties=species:S:1:pos:R:3:momenta:R:3:forces:R:3 EPS_SCF=1e-06 energy=-671.0407687589922 units=gap_units Integrated_spin_density=1.924e-05 opt_dir=/home/tks32/dft_pbe/apr_8_opt_fragments_subset/singlepoint_5_CH3OH time=80.0 free_energy=-671.0407687589922 cutoff=8.0 nneightol=1.2 pbc="T T T"
C       -0.66688045       0.33997560      -0.04603264      -0.31755189       0.20554123      -0.72739919      -0.01850081       0.06890223      -0.08499331
O        0.62572988      -0.36856259       0.03075997       0.81008310      -0.91349911      -1.00947518       0.09349423       0.01037524       0.03922497
H       -1.44664061      -0.30552213      -0.50149454      -0.18886903       0.28104581       0.54177865      -0.11065250       0.02001792       0.11678011
H        0.81264213      -0.80785434       0.88854573       0.07114053      -0.47466848       0.82710319      -0.10737712      -0.00524104      -0.28688676
H       -1.02854355       0.68578620       0.93353752       0.25883444       0.18186623      -0.11931727       0.00515651       0.03810583       0.07949870
H       -0.50683860       1.22321044      -0.70485024      -0.44120399       0.03986781       0.11509125      -0.08559646      -0.07763378       0.00150228
H        2.21053119      -0.76703320      -0.60046580      -0.19243317       0.67984652       0.37221854       0.22347615      -0.05452640       0.13487400
7
Lattice="13.0 0.0 0.0 0.0 9.0 0.0 0.0 0.0 9.0" Properties=species:S:1:pos:R:3:momenta:R:3:forces:R:3 EPS_SCF=1e-06 energy=-671.0440756122332 units=gap_units Integrated_spin_density=1.924e-05 opt_dir=/home/tks32/dft_pbe/apr_8_opt_fragments_subset/singlepoint_5_CH3OH time=80.0 free_energy=-671.0440756122332 cutoff=8.0 nneightol=1.2 pbc="T T T"
C       -0.66680007       0.34041633      -0.04647524      -0.31755189       0.20554123      -0.72739919      -0.04669138       0.03117879       0.01186342
O        0.62414876      -0.36633368       0.03135109       0.81008310      -0.91349911      -1.00947518       0.12527221       0.06092609      -0.14007318
H       -1.44826484      -0.30479819      -0.49914112      -0.18886903       0.28104581       0.54177865      -0.10445314       0.01662638       0.10642362
H        0.81102180      -0.80811634       0.88342927       0.07114053      -0.47466848       0.82710319      -0.08899736      -0.07678999      -0.13419337
H       -1.02857969       0.68595435       0.93463420       0.25883444       0.18186623      -0.11931727       0.02789979       0.03654368       0.02904718
H       -0.50765785       1.22147568      -0.70528199      -0.44120399       0.03986781       0.11509125      -0.08563110      -0.03012590      -0.02557180
H        2.21613189      -0.76859818      -0.59851622      -0.19243317       0.67984652       0.37221854       0.17260098      -0.03835905       0.15250413
7
Lattice="13.0 0.0 0.0 0.0 9.0 0.0 0.0 0.0 9.0" Properties=species:S:1:pos:R:3:momenta:R:3:forces:R:3 EPS_SCF=1e-06 energy=-671.0468375926287 units=gap_units Integrated_spin_density=1.924e-05 opt_dir=/home/tks32/dft_pbe/apr_8_opt_fragments_subset/singlepoint_5_CH3OH time=80.0 free_energy=-671.0468375926287 cutoff=8.0 nneightol=1.2 pbc="T T T"
C       -0.66694347       0.34100473      -0.04685948      -0.31755189       0.20554123      -0.72739919      -0.06823424      -0.01415723       0.10388766
O        0.62317289      -0.36382109       0.03126966       0.81008310      -0.91349911      -1.00947518       0.14393725       0.11287018      -0.30654870
H       -1.45038324      -0.30399724      -0.49628670      -0.18886903       0.28104581       0.54177865      -0.09298851       0.01352350       0.09667614
H        0.80898126      -0.80874496       0.87768874       0.07114053      -0.47466848       0.82710319      -0.06736474      -0.14882639       0.01138307
H       -1.02848217       0.68629682       0.93586600       0.25883444       0.18186623      -0.11931727       0.05293189       0.03558572      -0.02103662