7
Lattice="13.0 0.0 0.0 0.0 9.0 0.0 0.0 0.0 9.0" Properties=species:S:1:pos:R:3:momenta:R:3:forces:R:3 EPS_SCF=1e-06 energy=-670.6514196204873 units=gap_units Integrated_spin_density=1.924e-05 opt_dir=/home/tks32/dft_pbe/apr_8_opt_fragments_subset/singlepoint_5_CH3OH time=30.0 free_energy=-670.6514196204873 cutoff=8.0 nneightol=1.2 pbc="T T T"
C       -0.62789782       0.38731272      -0.03061853      -0.54387360      -0.37898307      -0.66115888       0.03728736      -1.78891396       0.29068614
O        0.58308101      -0.57755739      -0.10720185       1.50769252       2.10727122       1.00646372       0.40398418       5.32980992      -2.00536170
H       -1.60474768      -0.15955382      -0.01224871       0.42277758      -0.01254788       0.07640857       0.68626671       0.15073499      -0.27940328
H        0.43634773      -1.40776533       0.23368981      -0.32984799      -0.44825288      -0.21508275      -0.90700859      -3.63966233       1.78254984
H       -0.52669166       0.97536636       0.87879701      -0.05091383      -0.35899509       0.04222776       0.08428265       0.35659429       0.69330198
H       -0.57257836       1.07976400      -0.87825136      -0.07858736      -0.16608572      -0.05574015       0.16697627      -0.02860701      -0.45308910
H        2.31248678      -0.29756654      -0.08416637      -0.92724732      -0.74240657      -0.19311826      -0.47178859      -0.37995590      -0.02868388
7
Lattice="13.0 0.0 0.0 0.0 9.0 0.0 0.0 0.0 9.0" Properties=species:S:1:pos:R:3:momenta:R:3:forces:R:3 EPS_SCF=1e-06 energy=-670.8392904704109 units=gap_units Integrated_spin_density=1.924e-05 opt_dir=/home/tks32/dft_pbe/apr_8_opt_fragments_subset/singlepoint_5_CH3OH time=30.0 free_energy=-670.8392904704109 cutoff=8.0 nneightol=1.2 pbc="T T T"
C       -0.62752495       0.36942358      -0.02771167      -0.54387360      -0.37898307      -0.66115888       0.35639703       0.03180928       0.11321959
O        0.58712085      -0.52425929      -0.12725547       1.50769252       2.10727122       1.00646372      -0.64466220      -0.57584309       0.20644696
H       -1.59788501      -0.15804647      -0.01504274       0.42277758      -0.01254788       0.07640857       0.30246817      -0.26017490      -0.25403917
H        0.42727764      -1.44416195       0.25151531      -0.32984799      -0.44825288      -0.21508275       0.23278363       1.27405460      -0.32449652
H       -0.52584883       0.97893230       0.88573003      -0.05091383      -0.35899509       0.04222776      -0.04114827       0.07059155       0.35510906
H       -0.57090860       1.07947793      -0.88278225      -0.07858736      -0.16608572      -0.05574015      -0.01666159      -0.26614475      -0.07357379
H        2.30776889      -0.30136610      -0.08445321      -0.92724732      -0.74240657      -0.19311826      -0.18917678      -0.27429267      -0.02266613
7
Lattice="13.0 0.0 0.0 0.0 9.0 0.0 0.0 0.0 9.0" Properties=species:S:1:pos:R:3:momenta:R:3:forces:R:3 EPS_SCF=1e-06 energy=-670.8468612776726 units=gap_units Integrated_spin_density=1.924e-05 opt_dir=/home/tks32/dft_pbe/apr_8_opt_fragments_subset/singlepoint_5_CH3OH time=30.0 free_energy=-670.8468612776726 cutoff=8.0 nneightol=1.2 pbc="T T T"
C       -0.62663395       0.36950310      -0.02742862      -0.54387360      -0.37898307      -0.66115888       0.31635583       0.00337988       0.12680794
O        0.58550920      -0.52569890      -0.12673935       1.50769252       2.10727122       1.00646372      -0.57584043      -0.38019401       0.12514921
H       -1.59712884      -0.15869691      -0.01567784       0.42277758      -0.01254788       0.07640857       0.30761023      -0.24544485      -0.24845628
H        0.42785960      -1.44097682       0.25070407      -0.32984799      -0.44825288      -0.21508275       0.18971929       1.09611782      -0.24626096
H       -0.52595170       0.97910878       0.88661780      -0.05091383      -0.35899509       0.04222776      -0.03908252       0.06376679       0.33611081
H       -0.57095025       1.07881257      -0.88296619      -0.07858736      -0.16608572      -0.05574015      -0.00792512      -0.25899678      -0.07032757
H        2.30729595      -0.30205183      -0.08450987      -0.92724732      -0.74240657      -0.19311826      -0.19083728      -0.27862885      -0.02302316
7
Lattice="13.0 0.0 0.0 0.0 9.0 0.0 0.0 0.0 9.0" Properties=species:S:1:pos:R:3:momenta:R:3:forces:R:3 EPS_SCF=1e-06 energy=-670.8580225985269 units=gap_units Integrated_spin_density=1.924e-05 opt_dir=/home/tks32/dft_pbe/apr_8_opt_fragments_subset/singlepoint_5_CH3OH time=30.0 free_energy=-670.8580225985269 cutoff=8.0 nneightol=1.2 pbc="T T T"
C       -0.62494956       0.36958410      -0.02682013      -0.54387360      -0.37898307      -0.66115888       0.24306366      -0.04139270       0.14873473
O        0.58245234      -0.52805513      -0.12592573       1.50769252       2.10727122       1.00646372      -0.44787144      -0.02335011      -0.02487336
H       -1.59559018      -0.15996699      -0.01694252       0.42277758      -0.01254788       0.07640857       0.31380258      -0.21994884      -0.23709641
H        0.42891261      -1.43505247       0.24928698      -0.32984799      -0.44825288      -0.21508275       0.11253509       0.76584795      -0.10081558
H       -0.52615331       0.97944550       0.88835441      -0.05091383      -0.35899509       0.04222776      -0.03591812       0.05053530       0.29992930
H       -0.57100985       1.07749125      -0.88332791      -0.07858736      -0.16608572      -0.05574015       0.00693569      -0.24536459      -0.06225264
H        2.30633795      -0.30344625      -0.08462510      -0.92724732      -0.74240657      -0.19311826      -0.19254745      -0.28632701      -0.02362605
7
Lattice="13.0 0.0 0.0 0.0 9.0 0.0 0.0 0.0 9.0" Properties=species:S:1:pos:R:3:momenta:R:3:forces:R:3 EPS_SCF=1e-06 energy=-670.8678745923687 units=gap_units Integrated_spin_density=1.924e-05 opt_dir=/home/tks32/dft_pbe/apr_8_opt_fragments_subset/singlepoint_5_CH3OH time=30.0 free_energy=-670.8678745923687 cutoff=8.0 nneightol=1.2 pbc="T T T"
C       -0.62265188       0.36952388      -0.02579415      -0.54387360      -0.37898307      -0.66115888       0.14864832      -0.07896841       0.16873110
O        0.57826077      -0.53025084      -0.12527346       1.50769252       2.10727122       1.00646372      -0.28307824       0.40272602      -0.20894795
H       -1.59319616      -0.16181745      -0.01884326       0.42277758      -0.01254788       0.07640857       0.31302587      -0.19112824      -0.21951789
H        0.43022223      -1.42725750       0.24768737      -0.32984799      -0.44825288      -0.21508275       0.02251039       0.35660246       0.08035382
H       -0.52645028       0.97991107       0.89088196      -0.05091383      -0.35899509       0.04222776      -0.03362188       0.03186599       0.25015796
H       -0.57104118       1.07551294      -0.88385368      -0.07858736      -0.16608572      -0.05574015       0.02282373      -0.22579455      -0.04649935
H        2.30485649      -0.30562209      -0.08480478      -0.92724732      -0.74240657      -0.19311826      -0.19030819      -0.29530325      -0.02427770
7
Lattice="13.0 0.0 0.0 0.0 9.0 0.0 0.0 0.0 9.0" Properties=species:S:1:pos:R:3:momenta:R:3:forces:R:3 EPS_SCF=1e-06 energy=-670.8749585131412 units=gap_units Integrated_spin_density=1.924e-05 opt_dir=/home/tks32/dft_pbe/apr_8_opt_fragments_subset/singlepoint_5_CH3OH time=30.0 free_energy=-670.8749585131412 cutoff=8.0 nneightol=1.2 pbc="T T T"
C       -0.62003750       0.36917937      -0.02425046      -0.54387360      -0.37898307      -0.66115888       0.04908667      -0.07844757       0.17302863
O        0.57344769      -0.53074645      -0.12545457       1.50769252       2.10727122       1.00646372      -0.11615706       0.74880801      -0.36921506
H       -1.58989078      -0.16418550      -0.02136093       0.42277758      -0.01254788       0.07640857       0.29494205      -0.16863529      -0.19560015
H        0.43148365      -1.41893107       0.24654312      -0.32984799      -0.44825288      -0.21508275      -0.04787561      -0.00983278       0.24401988
H       -0.52684115       0.98044723       0.89407641      -0.05091383      -0.35899509       0.04222776      -0.03492886       0.01013842       0.19336269
H       -0.57098547       1.07290238      -0.88449781      -0.07858736      -0.16608572      -0.05574015       0.03260646      -0.19969067      -0.02085348
H        2.30282355      -0.30866595      -0.08505575      -0.92724732      -0.74240657      -0.19311826      -0.17767365      -0.30234011      -0.02474252
7
Lattice="13.0 0.0 0.0 0.0 9.0 0.0 0.0 0.0 9.0" Properties=species:S:1:pos:R:3:momenta:R:3:forces:R:3 EPS_SCF=1e-06 energy=-670.8819834084044 units=gap_units Integrated_spin_density=1.924e-05 opt_dir=/home/tks32/dft_pbe/apr_8_opt_fragments_subset/singlepoint_5_CH3OH time=30.0 free_energy=-670.8819834084044 cutoff=8.0 nneightol=1.2 pbc="T T T"
C       -0.61750454       0.36858161      -0.02222658      -0.54387360      -0.37898307      -0.66115888      -0.04304547      -0.02252740       0.15339180
O        0.56868993      -0.52844633      -0.12697163       1.50769252       2.10727122       1.00646372       0.02190089       0.87730728      -0.45012790
H       -1.58583427      -0.16693519      -0.02434418       0.42277758      -0.01254788       0.07640857       0.25421411      -0.15868243      -0.16685056
H        0.43244335      -1.41147335       0.24640822      -0.32984799      -0.44825288      -0.21508275      -0.07169143      -0.21603365       0.33762209
H       -0.52732103       0.98096695       0.89766054      -0.05091383      -0.35899509       0.04222776      -0.04165157      -0.01035498       0.13888786
H       -0.57081575       1.06982053      -0.88515401      -0.07858736      -0.16608572      -0.05574015       0.03058547      -0.16496379       0.01192440
H        2.30034231      -0.31251423      -0.08537236      -0.92724732      -0.74240657      -0.19311826      -0.15031199      -0.30474505      -0.02484769
7
Lattice="13.0 0.0 0.0 0.0 9.0 0.0 0.0 0.0 9.0" Properties=species:S:1:pos:R:3:momenta:R:3:forces:R:3 EPS_SCF=1e-06 energy=-670.8910944827641 units=gap_units Integrated_spin_density=1.924e-05 opt_dir=/home/tks32/dft_pbe/apr_8_opt_fragments_subset/singlepoint_5_CH3OH time=30.0 free_energy=-670.8910944827641 cutoff=8.0 nneightol=1.2 pbc="T T T"
C       -0.61537981       0.36796255      -0.01985298      -0.54387360      -0.37898307      -0.66115888      -0.11987067       0.07939523       0.11087378
O        0.56448676      -0.52321852      -0.12995713       1.50769252       2.10727122       1.00646372       0.11924211       0.74294792      -0.42938039
H       -1.58126841      -0.16998106      -0.02762965       0.42277758      -0.01254788       0.07640857       0.19181025      -0.16087967      -0.13527100
H        0.43304904      -1.40553897       0.24750201      -0.32984799      -0.44825288      -0.21508275      -0.04336030      -0.21657898       0.33907869
H       -0.52790284       0.98139744       0.90138617      -0.05091383      -0.35899509       0.04222776      -0.05406316      -0.02532807       0.09422710
H       -0.57055292       1.06645312      -0.88570166      -0.07858736      -0.16608572      -0.05574015       0.01465987      -0.11776554       0.04497305
H        2.29756817      -0.31707455      -0.08574675      -0.92724732      -0.74240657      -0.19311826      -0.10841809      -0.30179089      -0.02450123
7
Lattice="13.0 0.0 0.0 0.0 9.0 0.0 0.0 0.0 9.0" Properties=species:S:1:pos:R:3:momenta:R:3:forces:R:3 EPS_SCF=1e-06 energy=-670.9006866628417 units=gap_units Integrated_spin_density=1.924e-05 opt_dir=/home/tks32/dft_pbe/apr_8_opt_fragments_subset/singlepoint_5_CH3OH time=30.0 free_energy=-670.9006866628417 cutoff=8.0 nneightol=1.2 pbc="T T T"
C       -0.61392338       0.36770730      -0.01729513      -0.54387360      -0.37898307      -0.66115888      -0.17409311       0.19730506       0.05259412
O        0.56115736      -0.51568830      -0.13427687       1.50769252       2.10727122       1.00646372       0.17669743       0.39107093      -0.31765446
H       -1.57642975      -0.17333412      -0.03110096       0.42277758      -0.01254788       0.07640857       0.11287210      -0.16991642      -0.10264217
H        0.43342928      -1.40102160       0.24977582      -0.32984799      -0.44825288      -0.21508275       0.02624352      -0.03899729       0.25765991
H       -0.52863205       0.98168856       0.90509754      -0.05091383      -0.35899509       0.04222776      -0.07131422      -0.03124617       0.06412976
H       -0.57026062       1.06297462      -0.88602354      -0.07858736      -0.16608572      -0.05574015      -0.01408949      -0.05391317       0.06955721
H        2.29465917      -0.32232645      -0.08617687      -0.92724732      -0.74240657      -0.19311826      -0.05631623      -0.29430293      -0.02364438
7
Lattice="13.0 0.0 0.0 0.0 9.0 0.0 0.0 0.0 9.0" Properties=species:S:1:pos:R:3:momenta:R:3:forces:R:3 EPS_SCF=1e-06 energy=-670.9080511689574 units=gap_units Integrated_spin_density=1.924e-05 opt_dir=/home/tks32/dft_pbe/apr_8_opt_fragments_subset/singlepoint_5_CH3OH time=30.0 free_energy=-670.9080511689574 cutoff=8.0 nneightol=1.2 pbc="T T T"
C       -0.61338787       0.36848182      -0.01448904      -0.54387360      -0.37898307      -0.66115888      -0.19692781       0.28964132      -0.01636205
O        0.55878116      -0.50619740      -0.14020718       1.50769252       2.10727122       1.00646372       0.19966204      -0.10720495      -0.13395618
H       -1.57105185      -0.17753826      -0.03507193       0.42277758      -0.01254788       0.07640857       0.01769505      -0.17644356      -0.06720033
H        0.43394234      -1.39675244       0.25336832      -0.32984799      -0.44825288      -0.21508275       0.12618269       0.26123997       0.11437097
H       -0.52972525       0.98181409       0.90910567      -0.05091383      -0.35899509       0.04222776      -0.09364565      -0.02434838       0.05010277
H       -0.57004460       1.05925022      -0.88598007      -0.07858736      -0.16608572      -0.05574015      -0.05603531       0.04023383       0.07511522
H        2.29148607      -0.32905803      -0.08672578      -0.92724732      -0.74240657      -0.19311826       0.00306898      -0.28311823      -0.02207040
7
Lattice="13.0 0.0 0.0 0.0 9.0 0.0 0.0 0.0 9.0" Properties=species:S:1:pos:R:3:momenta:R:3:forces:R:3 EPS_SCF=1e-06 energy=-670.9124436480993 units=gap_units Integrated_spin_density=1.924e-05 opt_dir=/home/tks32/dft_pbe/apr_8_opt_fragments_subset/singlepoint_5_CH3OH time=30.0 free_energy=-670.9124436480993 cutoff=8.0 nneightol=1.2 pbc="T T T"
C       -0.61416434       0.37117208      -0.01181653      -0.54387360      -0.37898307      -0.66115888      -0.17673256       0.27259635      -0.07343728
O        0.55775147      -0.49750260      -0.14697391       1.50769252       2.10727122       1.00646372       0.19425659      -0.49568252       0.03393022
H       -1.56560434      -0.18287622      -0.03945364       0.42277758      -0.01254788       0.07640857      -0.07141568      -0.16063434      -0.03151807
H        0.43528843      -1.39078716       0.25768804      -0.32984799      -0.44825288      -0.21508275       0.21770107       0.49713916      -0.00742539
H       -0.53143033       0.98177689       0.91341071      -0.05091383      -0.35899509       0.04222776      -0.11606448      -0.00466532       0.04900774
H       -0.57020247       1.05582605      -0.88543837      -0.07858736      -0.16608572      -0.05574015      -0.09999879       0.16344136       0.04934515
H        2.28836158      -0.33760903      -0.08741631      -0.92724732      -0.74240657      -0.19311826       0.05225386      -0.27219469      -0.01990237
7
Lattice="13.0 0.0 0.0 0.0 9.0 0.0 0.0 0.0 9.0" Properties=species:S:1:pos:R:3:momenta:R:3:forces:R:3 EPS_SCF=1e-06 energy=-670.9186966119097 units=gap_units Integrated_spin_density=1.924e-05 opt_dir=/home/tks32/dft_pbe/apr_8_opt_fragments_subset/singlepoint_5_CH3OH time=30.0 free_energy=-670.9186966119097 cutoff=8.0 nneightol=1.2 pbc="T T T"
C       -0.61612338       0.37567471      -0.00965882      -0.54387360      -0.37898307      -0.66115888      -0.12319798       0.12381702      -0.10077969
O        0.55803632      -0.49220949      -0.15345958       1.50769252       2.10727122       1.00646372       0.17238714      -0.55771704       0.09739920
H       -1.56067971      -0.18925285      -0.04401310       0.42277758      -0.01254788       0.07640857      -0.13004450      -0.11125945       0.00094505
H        0.43808819      -1.38152489       0.26192408      -0.32984799      -0.44825288      -0.21508275       0.26780928       0.50386791      -0.02643148
H       -0.53390271       0.98170859       0.91801174      -0.05091383      -0.35899509       0.04222776      -0.13275171       0.01588388       0.04430686
H       -0.57103165       1.05352787      -0.88456902      -0.07858736      -0.16608572      -0.05574015      -0.13168059       0.29035169       0.00212265
H        2.28561293      -0.34792393      -0.08823530      -0.92724732      -0.74240657      -0.19311826       0.07747836      -0.26494399      -0.01756259
7
Lattice="13.0 0.0 0.0 0.0 9.0 0.0 0.0 0.0 9.0" Properties=species:S:1:pos:R:3:momenta:R:3:forces:R:3 EPS_SCF=1e-06 energy=-670.928455146793 units=gap_units Integrated_spin_density=1.924e-05 opt_dir=/home/tks32/dft_pbe/apr_8_opt_fragments_subset/singlepoint_5_CH3OH time=30.0 free_energy=-670.928455146793 cutoff=8.0 nneightol=1.2 pbc="T T T"
C       -0.61901481       0.38109735      -0.00828914      -0.54387360      -0.37898307      -0.66115888      -0.05020553      -0.10416537      -0.09571408
O        0.55964237      -0.49123266      -0.15915402       1.50769252       2.10727122       1.00646372       0.13828780      -0.22987482       0.01347986
H       -1.55678636      -0.19644050      -0.04853461       0.42277758      -0.01254788       0.07640857      -0.14515047      -0.03168575       0.02586742
H        0.44292462      -1.36845766       0.26592873      -0.32984799      -0.44825288      -0.21508275       0.26734323       0.22646301       0.09445550
H       -0.53737734       0.98176267       0.92292185      -0.05091383      -0.35899509       0.04222776      -0.14089673       0.01932210       0.01493606
H       -0.57286594       1.05347369      -0.88368924      -0.07858736      -0.16608572      -0.05574015      -0.14397087       0.38184597      -0.03775145
H        2.28347746      -0.36020289      -0.08918358      -0.92724732      -0.74240657      -0.19311826       0.07459256      -0.26190513      -0.01527330
7
Lattice="13.0 0.0 0.0 0.0 9.0 0.0 0.0 0.0 9.0" Properties=species:S:1:pos:R:3:momenta:R:3:forces:R:3 EPS_SCF=1e-06 energy=-670.9372086212763 units=gap_units Integrated_spin_density=1.924e-05 opt_dir=/home/tks32/dft_pbe/apr_8_opt_fragments_subset/singlepoint_5_CH3OH time=30.0 free_energy=-670.9372086212763 cutoff=8.0 nneightol=1.2 pbc="T T T"
C       -0.62239237       0.38544667      -0.00788523      -0.54387360      -0.37898307      -0.66115888       0.02670543      -0.25836969      -0.08209853
O        0.56262347      -0.49256221      -0.16468128       1.50769252       2.10727122       1.00646372       0.08239381       0.29090874      -0.16202562
H       -1.55436789      -0.20390457      -0.05277159       0.42277758      -0.01254788       0.07640857      -0.12256284       0.05269997       0.03645920
H        0.45040950      -1.35319777       0.27085611      -0.32984799      -0.44825288      -0.21508275       0.24421094      -0.19409820       0.29673817
H       -0.54224254       0.98200985       0.92795364      -0.05091383      -0.35899509       0.04222776      -0.14130095      -0.01649158      -0.05842709
H       -0.57613086       1.05724176      -0.88319229      -0.07858736      -0.16608572      -0.05574015      -0.14432327       0.38425404      -0.01803922
H        2.28210070      -0.37503373      -0.09027935      -0.92724732      -0.74240657      -0.19311826       0.05487688      -0.25890327      -0.01260691
7
Lattice="13.0 0.0 0.0 0.0 9.0 0.0 0.0 0.0 9.0" Properties=species:S:1:pos:R:3:momenta:R:3:forces:R:3 EPS_SCF=1e-06 energy=-670.9484981542541 units=gap_units Integrated_spin_density=1.924e-05 opt_dir=/home/tks32/dft_pbe/apr_8_opt_fragments_subset/singlepoint_5_CH3OH time=30.0 free_energy=-670.9484981542541 cutoff=8.0 nneightol=1.2 pbc="T T T"
C       -0.62544987       0.38682997      -0.00841929      -0.54387360      -0.37898307      -0.66115888       0.08136449      -0.18618997      -0.09978432
O        0.56653029      -0.49056864      -0.17203050       1.50769252       2.10727122       1.00646372      -0.02303758       0.46522317      -0.20400614
H       -1.55335805      -0.21073334      -0.05657333       0.42277758      -0.01254788       0.07640857      -0.08784364       0.10637158       0.02801566
H        0.46064443      -1.34022135       0.27914423      -0.32984799      -0.44825288      -0.21508275       0.27177391      -0.33408358       0.35921487
H       -0.54869646       0.98206784       0.93229605      -0.05091383      -0.35899509       0.04222776      -0.13638927      -0.08886665      -0.15800801
H       -0.58102633       1.06537378      -0.88290333      -0.07858736      -0.16608572      -0.05574015      -0.15382975       0.28485690       0.08287371
H        2.28135599      -0.39274826      -0.09151383      -0.92724732      -0.74240657      -0.19311826       0.04796184      -0.24731144      -0.00830577
7
Lattice="13.0 0.0 0.0 0.0 9.0 0.0 0.0 0.0 9.0" Properties=species:S:1:pos:R:3:momenta:R:3:forces:R:3 EPS_SCF=1e-06 energy=-670.966480935904 units=gap_units Integrated_spin_density=1.924e-05 opt_dir=/home/tks32/dft_pbe/apr_8_opt_fragments_subset/singlepoint_5_CH3OH time=30.0 free_energy=-670.966480935904 cutoff=8.0 nneightol=1.2 pbc="T T T"
C       -0.62744492       0.38580205      -0.01024105      -0.54387360      -0.37898307      -0.66115888       0.07045342       0.05274191      -0.13674324
O        0.57012545      -0.48256968      -0.18199009       1.50769252       2.10727122       1.00646372      -0.16078642       0.06181880       0.01363005
H       -1.55348709      -0.21616305      -0.05999946       0.42277758      -0.01254788       0.07640857      -0.04478479       0.12768629      -0.00008260
H        0.47435526      -1.33160882       0.29204528      -0.32984799      -0.44825288      -0.21508275       0.36488099       0.00383466       0.15167162
H       -0.55689006       0.98097712       0.93458090      -0.05091383      -0.35899509       0.04222776      -0.12106603      -0.15863899      -0.22761488
H       -0.58789243       1.07715829      -0.88154434      -0.07858736      -0.16608572      -0.05574015      -0.17272091       0.13859281       0.20066172
H        2.28123379      -0.41359591      -0.09285124      -0.92724732      -0.74240657      -0.19311826       0.06402375      -0.22603549      -0.00152267
7
Lattice="13.0 0.0 0.0 0.0 9.0 0.0 0.0 0.0 9.0" Properties=species:S:1:pos:R:3:momenta:R:3:forces:R:3 EPS_SCF=1e-06 energy=-670.985007392351 units=gap_units Integrated_spin_density=1.924e-05 opt_dir=/home/tks32/dft_pbe/apr_8_opt_fragments_subset/singlepoint_5_CH3OH time=30.0 free_energy=-670.985007392351 cutoff=8.0 nneightol=1.2 pbc="T T T"
C       -0.62823689       0.38567359      -0.01438350      -0.54387360      -0.37898307      -0.66115888      -0.04923258       0.15897508      -0.10831229
O        0.57097738      -0.47353972      -0.19169273       1.50769252       2.10727122       1.00646372      -0.20995170      -0.38611932       0.23564797
H       -1.55437737      -0.21940776      -0.06341833       0.42277758      -0.01254788       0.07640857       0.02436510       0.15202867      -0.04573133
H        0.49423619      -1.32295284       0.30749287      -0.32984799      -0.44825288      -0.21508275       0.41193651       0.39736166      -0.09882922
H       -0.56712166       0.97719153       0.93298943      -0.05091383      -0.35899509       0.04222776      -0.08518366      -0.15802227      -0.19061326
H       -0.59767828       1.09126977      -0.87677657      -0.07858736      -0.16608572      -0.05574015      -0.16430460       0.04137283       0.20258547
H        2.28220061      -0.43823457      -0.09421117      -0.92724732      -0.74240657      -0.19311826       0.07237093      -0.20559664       0.00525267
7
Lattice="13.0 0.0 0.0 0.0 9.0 0.0 0.0 0.0 9.0" Properties=species:S:1:pos:R:3:momenta:R:3:forces:R:3 EPS_SCF=1e-06 energy=-671.0107416343117 units=gap_units Integrated_spin_density=1.924e-05 opt_dir=/home/tks32/dft_pbe/apr_8_opt_fragments_subset/singlepoint_5_CH3OH time=30.0 free_energy=-671.0107416343117 cutoff=8.0 nneightol=1.2 pbc="T T T"
C       -0.62995471       0.38853884      -0.02055925      -0.54387360      -0.37898307      -0.66115888      -0.15791282      -0.03307795       0.02371742
O        0.56787464      -0.47179396      -0.19694355       1.50769252       2.10727122       1.00646372      -0.11177696      -0.12850401       0.04969840
H       -1.55480751      -0.21978488      -0.06769319       0.42277758      -0.01254788       0.07640857       0.05986369       0.16902063      -0.09907190
H        0.52184404      -1.30682753       0.32105631      -0.32984799      -0.44825288      -0.21508275       0.31298142       0.23164936       0.00363926
H       -0.57894190       0.97043606       0.92781109      -0.05091383      -0.35899509       0.04222776      -0.04019220      -0.06956881      -0.03916627
H       -0.61054328       1.10613911      -0.86820126      -0.07858736      -0.16608572      -0.05574015      -0.10192037       0.02076184       0.05612905
H        2.28452873      -0.46670762      -0.09547015      -0.92724732      -0.74240657      -0.19311826       0.03895723      -0.19028107       0.00505404
7
Lattice="13.0 0.0 0.0 0.0 9.0 0.0 0.0 0.0 9.0" Properties=species:S:1:pos:R:3:momenta:R:3:forces:R:3 EPS_SCF=1e-06 energy=-671.0301772708215 units=gap_units Integrated_spin_density=1.924e-05 opt_dir=/home/tks32/dft_pbe/apr_8_opt_fragments_subset/singlepoint_5_CH3OH time=30.0 free_energy=-671.0301772708215 cutoff=8.0 nneightol=1.2 pbc="T T T"
C       -0.63583352       0.39053091      -0.02610692      -0.54387360      -0.37898307      -0.66115888      -0.00426668      -0.13887485       0.10797078
O        0.56182751      -0.47343579      -0.20088199       1.50769252       2.10727122       1.00646372       0.01764111       0.43471524      -0.35533454
H       -1.55365972      -0.21570727      -0.07457702       0.42277758      -0.01254788       0.07640857      -0.10435056       0.04179361      -0.14318933
H        0.55768711      -1.28460493       0.33470905      -0.32984799      -0.44825288      -0.21508275       0.14857306      -0.19475240       0.30872384
H       -0.59181566       0.96185038       0.92160304      -0.05091383      -0.35899509       0.04222776      -0.01557332       0.03998314       0.16057270
H       -0.62608815       1.12154839      -0.85815084      -0.07858736      -0.16608572      -0.05574015      -0.03000085      -0.02114910      -0.07394296
H        2.28788244      -0.50018169      -0.09659532      -0.92724732      -0.74240657      -0.19311826      -0.01202277      -0.16171564      -0.00480049
7
Lattice="13.0 0.0 0.0 0.0 9.0 0.0 0.0 0.0 9.0" Properties=species:S:1:pos:R:3:momenta:R:3:forces:R:3 EPS_SCF=1e-06 energy=-671.0451767346452 units=gap_units Integrated_spin_density=1.924e-05 opt_dir=/home/tks32/dft_pbe/apr_8_opt_fragments_subset/singlepoint_5_CH3OH time=30.0 free_energy=-671.0451767346452 cutoff=8.0 nneightol=1.2 pbc="T T T"
C       -0.64183760       0.38854534      -0.02856417      -0.54387360      -0.37898307      -0.66115888       0.13309291       0.17492648       0.01168339
O        0.55628265      -0.46262415      -0.21500260       1.50769252       2.10727122       1.00646372       0.12775217      -0.21254083       0.00298390
H       -1.55550092      -0.21043017      -0.08556670       0.42277758      -0.01254788       0.07640857      -0.25084927      -0.14745959      -0.14653131
H        0.59780527      -1.26795035       0.35721362      -0.32984799      -0.44825288      -0.21508275      -0.00806499       0.36225028      -0.07731920
H       -0.60514226       0.95440575       0.91999208      -0.05091383      -0.35899509       0.04222776      -0.00059311       0.05461858       0.25914717
H       -0.64250058       1.13635974      -0.85021364      -0.07858736      -0.16608572      -0.05574015      -0.00849054      -0.13287563      -0.03023884
H        2.29089344      -0.53830615      -0.09785860      -0.92724732      -0.74240657      -0.19311826       0.00715283      -0.09891929      -0.01972512
7
Lattice="13.0 0.0 0.0 0.0 9.0 0.0 0.0 0.0 9.0" Properties=species:S:1:pos:R:3:momenta:R:3:forces:R:3 EPS_SCF=1e-06 energy=-671.0528910387524 units=gap_units Integrated_spin_density=1.924e-05 opt_dir=/home/tks32/dft_pbe/apr_8_opt_fragments_subset/singlepoint_5_CH3OH time=30.0 free_energy=-671.0528910387524 cutoff=8.0 nneightol=1.2 pbc="T T T"
C       -0.64316945       0.39270951      -0.03061420      -0.54387360      -0.37898307      -0.66115888      -0.23434528      -0.04906107       0.11510873
O        0.55522287      -0.45927192      -0.22903961       1.50769252       2.10727122       1.00646372       0.14221544      -0.15813674       0.02822949
H       -1.56616811      -0.21033174      -0.10172699       0.42277758      -0.01254788       0.07640857       0.16595383       0.00813653      -0.07180973
H        0.63770045      -1.23852904       0.37703265      -0.32984799      -0.44825288      -0.21508275      -0.21806641       0.36328864      -0.09336069
H       -0.61850988       0.94887097       0.92749376      -0.05091383      -0.35899509       0.04222776       0.04164802      -0.02777902       0.13173618