7
Lattice="13.0 0.0 0.0 0.0 9.0 0.0 0.0 0.0 9.0" Properties=species:S:1:pos:R:3:momenta:R:3:forces:R:3 EPS_SCF=1e-06 energy=-670.0687876895588 units=gap_units Integrated_spin_density=1.924e-05 opt_dir=/home/tks32/dft_pbe/apr_8_opt_fragments_subset/singlepoint_5_CH3OH time=0.0 free_energy=-670.0687876895588 cutoff=8.0 nneightol=1.2 pbc="T T T"
C       -0.85170330       0.30253923       0.00463343       5.45576389      -0.78295391      -0.42330267      -0.12734797      -0.05430433      -0.00006393
O       -0.23928017      -0.99555437      -0.00239197       6.08037964       1.18098515      -0.51859695      -0.37016421       0.17051024       0.01590349
H       -1.93557585       0.13626839       0.02907194      -0.04505419       0.01870235       0.27550326      -0.14037652       0.17003809       0.00340451
H        0.72321841      -0.86855210      -0.02397487       0.87220168      -0.41663278       0.71450882       0.59833115      -0.25716187      -0.03308860
H       -0.57174008       0.89244562       0.89290117       0.63788730      -0.13487010      -0.04519662       0.07899642      -0.06650133       0.08263587
H       -0.61083911       0.88370095      -0.90069729       0.06259361       0.13476928      -0.00291584       0.06889960      -0.07351051      -0.07606437
H        3.48592011      -0.35084770       0.00045760      -0.36793659       0.00000000       0.00000000      -0.10833847       0.11092971       0.00727303
7
Lattice="13.0 0.0 0.0 0.0 9.0 0.0 0.0 0.0 9.0" Properties=species:S:1:pos:R:3:momenta:R:3:forces:R:3 EPS_SCF=1e-06 energy=-670.0738126530899 units=gap_units Integrated_spin_density=1.924e-05 opt_dir=/home/tks32/dft_pbe/apr_8_opt_fragments_subset/singlepoint_5_CH3OH time=0.0 free_energy=-670.0738126530899 cutoff=8.0 nneightol=1.2 pbc="T T T"
C       -0.85297678       0.30199619       0.00463279       5.45576389      -0.78295391      -0.42330267      -0.08270149       0.01426480       0.00396281
O       -0.24298181      -0.99384927      -0.00223294       6.08037964       1.18098515      -0.51859695       0.06348121       0.12860880       0.00598205
H       -1.93697962       0.13796877       0.02910599      -0.04505419       0.01870235       0.27550326      -0.15545929       0.17380610       0.00371540
H        0.72920172      -0.87112372      -0.02430576       0.87220168      -0.41663278       0.71450882       0.16893505      -0.29159913      -0.02367602
H       -0.57095012       0.89178061       0.89372753       0.63788730      -0.13487010      -0.04519662       0.06311579      -0.06733398       0.05855109
H       -0.61015011       0.88296584      -0.90145793       0.06259361       0.13476928      -0.00291584       0.05554411      -0.07193027      -0.05591845
H        3.48483673      -0.34973840       0.00053033      -0.36793659       0.00000000       0.00000000      -0.11291538       0.11418367       0.00738313
7
Lattice="13.0 0.0 0.0 0.0 9.0 0.0 0.0 0.0 9.0" Properties=species:S:1:pos:R:3:momenta:R:3:forces:R:3 EPS_SCF=1e-06 energy=-670.0769041825607 units=gap_units Integrated_spin_density=1.924e-05 opt_dir=/home/tks32/dft_pbe/apr_8_opt_fragments_subset/singlepoint_5_CH3OH time=0.0 free_energy=-670.0769041825607 cutoff=8.0 nneightol=1.2 pbc="T T T"
C       -0.85509129       0.30167448       0.00467862       5.45576389      -0.78295391      -0.42330267       0.00546208       0.09156890       0.00737406
O       -0.24556997      -0.99080875      -0.00201976       6.08037964       1.18098515      -0.51859695       0.43738469       0.04178724      -0.00295986
H       -1.94006333       0.14153427       0.02918013      -0.04505419       0.01870235       0.27550326      -0.14260396       0.16704081       0.00375471
H        0.73656482      -0.87685261      -0.02488078       0.87220168      -0.41663278       0.71450882      -0.24971138      -0.28823425      -0.01442063
H       -0.56950010       0.89039366       0.89515685       0.63788730      -0.13487010      -0.04519662       0.03698108      -0.06504463       0.01932340
H       -0.60887963       0.88146199      -0.90279728       0.06259361       0.13476928      -0.00291584       0.03312649      -0.06702433      -0.02060949
H        3.48253951      -0.34740302       0.00068224      -0.36793659       0.00000000       0.00000000      -0.12063900       0.11990627       0.00753781
7
Lattice="13.0 0.0 0.0 0.0 9.0 0.0 0.0 0.0 9.0" Properties=species:S:1:pos:R:3:momenta:R:3:forces:R:3 EPS_SCF=1e-06 energy=-670.0815860046802 units=gap_units Integrated_spin_density=1.924e-05 opt_dir=/home/tks32/dft_pbe/apr_8_opt_fragments_subset/singlepoint_5_CH3OH time=0.0 free_energy=-670.0815860046802 cutoff=8.0 nneightol=1.2 pbc="T T T"
C       -0.85692951       0.30247189       0.00480739       5.45576389      -0.78295391      -0.42330267       0.10166846       0.09323022       0.00563670
O       -0.24270742      -0.98757626      -0.00186303       6.08037964       1.18098515      -0.51859695       0.30814380      -0.05031621      -0.00033419
H       -1.94453142       0.14672604       0.02929143      -0.04505419       0.01870235       0.27550326      -0.05638619       0.14018758       0.00284900
H        0.74022746      -0.88543003      -0.02556949       0.87220168      -0.41663278       0.71450882      -0.25325357      -0.20365674      -0.01479411
H       -0.56775612       0.88837331       0.89667261       0.63788730      -0.13487010      -0.04519662       0.01520127      -0.05223299      -0.01355956
H       -0.60734298       0.87931293      -0.90424733       0.06259361       0.13476928      -0.00291584       0.01404418      -0.05391112       0.01252682
H        3.47904001      -0.34387785       0.00090843      -0.36793659       0.00000000       0.00000000      -0.12941794       0.12669925       0.00767534
7
Lattice="13.0 0.0 0.0 0.0 9.0 0.0 0.0 0.0 9.0" Properties=species:S:1:pos:R:3:momenta:R:3:forces:R:3 EPS_SCF=1e-06 energy=-670.0854814932137 units=gap_units Integrated_spin_density=1.924e-05 opt_dir=/home/tks32/dft_pbe/apr_8_opt_fragments_subset/singlepoint_5_CH3OH time=0.0 free_energy=-670.0854814932137 cutoff=8.0 nneightol=1.2 pbc="T T T"
C       -0.85729745       0.30436926       0.00499462       5.45576389      -0.78295391      -0.42330267       0.14372026      -0.00138205      -0.00007438
O       -0.23623201      -0.98530370      -0.00172621       6.08037964       1.18098515      -0.51859695      -0.18684242      -0.10647465       0.01168076
H       -1.94926619       0.15317251       0.02942765      -0.04505419       0.01870235       0.27550326       0.09421196       0.10408788       0.00107077
H        0.74031927      -0.89572671      -0.02637652       0.87220168      -0.41663278       0.71450882       0.06299875      -0.08131719      -0.02337557
H       -0.56599418       0.88589405       0.89786521       0.63788730      -0.13487010      -0.04519662       0.01383542      -0.02241048      -0.02003246
H       -0.60578228       0.87669660      -0.90539387       0.06259361       0.13476928      -0.00291584       0.01305989      -0.02631225       0.02290110
H        3.47425284      -0.33910200       0.00120913      -0.36793659       0.00000000       0.00000000      -0.14098385       0.13380874       0.00782977
7
Lattice="13.0 0.0 0.0 0.0 9.0 0.0 0.0 0.0 9.0" Properties=species:S:1:pos:R:3:momenta:R:3:forces:R:3 EPS_SCF=1e-06 energy=-670.0873309698077 units=gap_units Integrated_spin_density=1.924e-05 opt_dir=/home/tks32/dft_pbe/apr_8_opt_fragments_subset/singlepoint_5_CH3OH time=0.0 free_energy=-670.0873309698077 cutoff=8.0 nneightol=1.2 pbc="T T T"
C       -0.85553457       0.30605676       0.00516203       5.45576389      -0.78295391      -0.42330267       0.09379774      -0.11105143      -0.00337318
O       -0.23312643      -0.98480973      -0.00143288       6.08037964       1.18098515      -0.51859695      -0.42686089      -0.12691684       0.01806813
H       -1.95215482       0.16049090       0.02956585      -0.04505419       0.01870235       0.27550326       0.22909634       0.07630675      -0.00043425
H        0.74131979      -0.90617851      -0.02744343       0.87220168      -0.41663278       0.71450882       0.18613491      -0.01274213      -0.02758998
H       -0.56420685       0.88333621       0.89864669       0.63788730      -0.13487010      -0.04519662       0.03955473       0.01965566       0.00121472
H       -0.60418737       0.87395854      -0.90609209       0.06259361       0.13476928      -0.00291584       0.03745534       0.01338776       0.00399772
H        3.46789026      -0.33285414       0.00159383      -0.36793659       0.00000000       0.00000000      -0.15917818       0.14136023       0.00811685
7
Lattice="13.0 0.0 0.0 0.0 9.0 0.0 0.0 0.0 9.0" Properties=species:S:1:pos:R:3:momenta:R:3:forces:R:3 EPS_SCF=1e-06 energy=-670.0919823186323 units=gap_units Integrated_spin_density=1.924e-05 opt_dir=/home/tks32/dft_pbe/apr_8_opt_fragments_subset/singlepoint_5_CH3OH time=0.0 free_energy=-670.0919823186323 cutoff=8.0 nneightol=1.2 pbc="T T T"
C       -0.85274484       0.30615104       0.00526944       5.45576389      -0.78295391      -0.42330267       0.03938273      -0.12857754      -0.00129741
O       -0.23580679      -0.98599314      -0.00093712       6.08037964       1.18098515      -0.51859695      -0.20521764      -0.14293015       0.01198842
H       -1.95181594       0.16805624       0.02968466      -0.04505419       0.01870235       0.27550326       0.26422243       0.05095109      -0.00031525
H        0.74460783      -0.91574857      -0.02875755       0.87220168      -0.41663278       0.71450882      -0.05870872      -0.01572216      -0.02154122
H       -0.56209088       0.88128627       0.89936559       0.63788730      -0.13487010      -0.04519662       0.07340585       0.04667082       0.01568142
H       -0.60227151       0.87166601      -0.90666920       0.06259361       0.13476928      -0.00291584       0.07058045       0.04039064      -0.01308779
H        3.46012214      -0.32541782       0.00204418      -0.36793659       0.00000000       0.00000000      -0.18366509       0.14921730       0.00857183
7
Lattice="13.0 0.0 0.0 0.0 9.0 0.0 0.0 0.0 9.0" Properties=species:S:1:pos:R:3:momenta:R:3:forces:R:3 EPS_SCF=1e-06 energy=-670.0975434956425 units=gap_units Integrated_spin_density=1.924e-05 opt_dir=/home/tks32/dft_pbe/apr_8_opt_fragments_subset/singlepoint_5_CH3OH time=0.0 free_energy=-670.0975434956425 cutoff=8.0 nneightol=1.2 pbc="T T T"
C       -0.84969447       0.30447417       0.00534833       5.45576389      -0.78295391      -0.42330267       0.07159132      -0.03972997       0.00296617
O       -0.24103093      -0.98901658      -0.00032668       6.08037964       1.18098515      -0.51859695       0.12448911      -0.15455739       0.00165511
H       -1.94789067       0.17556316       0.02978727      -0.04505419       0.01870235       0.27550326       0.18278412       0.01323653       0.00187859
H        0.74676265      -0.92457705      -0.03023540       0.87220168      -0.41663278       0.71450882      -0.36439322      -0.04822537      -0.01252529
H       -0.55918073       0.88008079       0.90022747       0.63788730      -0.13487010      -0.04519662       0.10088959       0.03813609      -0.00125899
H       -0.59958016       0.87015615      -0.90736793       0.06259361       0.13476928      -0.00291584       0.09869300       0.03404961      -0.00188162
H        3.45061432      -0.31668062       0.00256695      -0.36793659       0.00000000       0.00000000      -0.21405392       0.15709049       0.00916602
7
Lattice="13.0 0.0 0.0 0.0 9.0 0.0 0.0 0.0 9.0" Properties=species:S:1:pos:R:3:momenta:R:3:forces:R:3 EPS_SCF=1e-06 energy=-670.1067542591244 units=gap_units Integrated_spin_density=1.924e-05 opt_dir=/home/tks32/dft_pbe/apr_8_opt_fragments_subset/singlepoint_5_CH3OH time=0.0 free_energy=-670.1067542591244 cutoff=8.0 nneightol=1.2 pbc="T T T"
C       -0.84552702       0.30217721       0.00547398       5.45576389      -0.78295391      -0.42330267       0.17992903       0.06477782       0.00337649
O       -0.24420732      -0.99448728       0.00030419       6.08037964       1.18098515      -0.51859695       0.08863869      -0.12429293       0.00147301
H       -1.94107470       0.18320719       0.02991897      -0.04505419       0.01870235       0.27550326       0.05297363      -0.03978149       0.00523631
H        0.74305485      -0.93409027      -0.03189926       0.87220168      -0.41663278       0.71450882      -0.31908675      -0.06839647      -0.01345629
H       -0.55468246       0.87949867       0.90106055       0.63788730      -0.13487010      -0.04519662       0.12693577       0.00211540      -0.03733375
H       -0.59533372       0.86920719      -0.90808983       0.06259361       0.13476928      -0.00291584       0.12478849      -0.00027895       0.03080755
H        3.43777038      -0.30551268       0.00323141      -0.36793659       0.00000000       0.00000000      -0.25417886       0.16585661       0.00989667
7
Lattice="13.0 0.0 0.0 0.0 9.0 0.0 0.0 0.0 9.0" Properties=species:S:1:pos:R:3:momenta:R:3:forces:R:3 EPS_SCF=1e-06 energy=-670.1202215676973 units=gap_units Integrated_spin_density=1.924e-05 opt_dir=/home/tks32/dft_pbe/apr_8_opt_fragments_subset/singlepoint_5_CH3OH time=0.0 free_energy=-670.1202215676973 cutoff=8.0 nneightol=1.2 pbc="T T T"
C       -0.83787768       0.30116759       0.00566454       5.45576389      -0.78295391      -0.42330267       0.16414951       0.05053347      -0.00028094
O       -0.24562188      -1.00234016       0.00095826       6.08037964       1.18098515      -0.51859695      -0.29851498      -0.03131583       0.01371019
H       -1.93328335       0.19000515       0.03015190      -0.04505419       0.01870235       0.27550326       0.01846662      -0.06804102       0.00693498
H        0.73313947      -0.94485650      -0.03381147       0.87220168      -0.41663278       0.71450882       0.08691653      -0.09152930      -0.02701543
H       -0.54774167       0.87896311       0.90115605       0.63788730      -0.13487010      -0.04519662       0.17287399      -0.01629931      -0.03618610
H       -0.58868451       0.86826122      -0.90820279       0.06259361       0.13476928      -0.00291584       0.16707736      -0.02058458       0.03216525
H        3.42006962      -0.29120038       0.00408352      -0.36793659       0.00000000       0.00000000      -0.31096902       0.17723658       0.01067206
7
Lattice="13.0 0.0 0.0 0.0 9.0 0.0 0.0 0.0 9.0" Properties=species:S:1:pos:R:3:momenta:R:3:forces:R:3 EPS_SCF=1e-06 energy=-670.1405946163017 units=gap_units Integrated_spin_density=1.924e-05 opt_dir=/home/tks32/dft_pbe/apr_8_opt_fragments_subset/singlepoint_5_CH3OH time=0.0 free_energy=-670.1405946163017 cutoff=8.0 nneightol=1.2 pbc="T T T"
C       -0.82637740       0.30136977       0.00584693       5.45576389      -0.78295391      -0.42330267      -0.07902339      -0.03593645       0.00232492
O       -0.25413718      -1.01087777       0.00193384       6.08037964       1.18098515      -0.51859695      -0.16496902       0.04592787       0.00857720
H       -1.92511291       0.19512901       0.03054823      -0.04505419       0.01870235       0.27550326       0.08458757      -0.02335380       0.00627580
H        0.72537223      -0.95771922      -0.03635237       0.87220168      -0.41663278       0.71450882       0.09202130      -0.19118142      -0.02642535
H       -0.53673655       0.87804341       0.90038871       0.63788730      -0.13487010      -0.04519662       0.23521165       0.00896350       0.02187566
H       -0.57810680       0.86683223      -0.90754856       0.06259361       0.13476928      -0.00291584       0.22518313       0.00097634      -0.02360946
H        3.39509862      -0.27277741       0.00518322      -0.36793659       0.00000000       0.00000000      -0.39301125       0.19460396       0.01098123
7
Lattice="13.0 0.0 0.0 0.0 9.0 0.0 0.0 0.0 9.0" Properties=species:S:1:pos:R:3:momenta:R:3:forces:R:3 EPS_SCF=1e-06 energy=-670.173198050625 units=gap_units Integrated_spin_density=1.924e-05 opt_dir=/home/tks32/dft_pbe/apr_8_opt_fragments_subset/singlepoint_5_CH3OH time=0.0 free_energy=-670.173198050625 cutoff=8.0 nneightol=1.2 pbc="T T T"
C       -0.81722232       0.30053930       0.00609480       5.45576389      -0.78295391      -0.42330267      -0.03686869       0.02860136       0.00776198
O       -0.26732933      -1.01803989       0.00314900       6.08037964       1.18098515      -0.51859695       0.30410830       0.01312439      -0.01188035
H       -1.91457004       0.19954819       0.03112200      -0.04505419       0.01870235       0.27550326      -0.00327107       0.03597945       0.00868094
H        0.72029806      -0.97598175      -0.03963449       0.87220168      -0.41663278       0.71450882      -0.22285426      -0.29308247      -0.01046182
H       -0.51905557       0.87738714       0.90025432       0.63788730      -0.13487010      -0.04519662       0.22557510       0.00489308       0.01886127
H       -0.56113813       0.86544088      -0.90757626       0.06259361       0.13476928      -0.00291584       0.22692693      -0.00385609      -0.02142408
H        3.35901735      -0.24889385       0.00659065      -0.36793659       0.00000000       0.00000000      -0.49361631       0.21434028       0.00846206
7
Lattice="13.0 0.0 0.0 0.0 9.0 0.0 0.0 0.0 9.0" Properties=species:S:1:pos:R:3:momenta:R:3:forces:R:3 EPS_SCF=1e-06 energy=-670.2253666789308 units=gap_units Integrated_spin_density=1.924e-05 opt_dir=/home/tks32/dft_pbe/apr_8_opt_fragments_subset/singlepoint_5_CH3OH time=0.0 free_energy=-670.2253666789308 cutoff=8.0 nneightol=1.2 pbc="T T T"
C       -0.80935803       0.30067464       0.00660210       5.45576389      -0.78295391      -0.42330267       0.33925365       0.07467003      -0.00174939
O       -0.27022765      -1.02472041       0.00395806       6.08037964       1.18098515      -0.51859695      -0.19806813      -0.02298906       0.01036682
H       -1.90419682       0.20515135       0.03198422      -0.04505419       0.01870235       0.27550326      -0.08496646       0.05554725       0.01138396
H        0.70776396      -1.00398939      -0.04324958       0.87220168      -0.41663278       0.71450882       0.25756960      -0.27071421      -0.02754303
H       -0.49389466       0.87689901       0.90075449       0.63788730      -0.13487010      -0.04519662       0.09801238      -0.01543137      -0.03053738
H       -0.53664008       0.86392784      -0.90832373       0.06259361       0.13476928      -0.00291584       0.13830432      -0.02758554       0.03973998
H        3.30655328      -0.21794303       0.00827446      -0.36793659       0.00000000       0.00000000      -0.55010536       0.20650289      -0.00166096
7
Lattice="13.0 0.0 0.0 0.0 9.0 0.0 0.0 0.0 9.0" Properties=species:S:1:pos:R:3:momenta:R:3:forces:R:3 EPS_SCF=1e-06 energy=-670.2863445426001 units=gap_units Integrated_spin_density=1.924e-05 opt_dir=/home/tks32/dft_pbe/apr_8_opt_fragments_subset/singlepoint_5_CH3OH time=0.0 free_energy=-670.2863445426001 cutoff=8.0 nneightol=1.2 pbc="T T T"
C       -0.78752680       0.30389147       0.00703485       5.45576389      -0.78295391      -0.42330267      -0.16366380      -0.13175882       0.00916627
O       -0.28128816      -1.03231904       0.00519129       6.08037964       1.18098515      -0.51859695       0.33098953      -0.09629716      -0.01138154
H       -1.89737852       0.21302149       0.03331235      -0.04505419       0.01870235       0.27550326       0.34374735       0.18255750      -0.00289112
H        0.70591918      -1.04304207      -0.04798488       0.87220168      -0.41663278       0.71450882      -0.13074216      -0.26910834       0.00473936
H       -0.46480411       0.87577618       0.89999188       0.63788730      -0.13487010      -0.04519662      -0.03354910       0.10227472       0.11038319
H       -0.50654622       0.86128314      -0.90742743       0.06259361       0.13476928      -0.00291584       0.03093224       0.09385990      -0.09585450
H        3.23162464      -0.17861115       0.00988195      -0.36793659       0.00000000       0.00000000      -0.37771407       0.11847220      -0.01416166
7
Lattice="13.0 0.0 0.0 0.0 9.0 0.0 0.0 0.0 9.0" Properties=species:S:1:pos:R:3:momenta:R:3:forces:R:3 EPS_SCF=1e-06 energy=-670.316067607109 units=gap_units Integrated_spin_density=1.924e-05 opt_dir=/home/tks32/dft_pbe/apr_8_opt_fragments_subset/singlepoint_5_CH3OH time=0.0 free_energy=-670.316067607109 cutoff=8.0 nneightol=1.2 pbc="T T T"
C       -0.77430252       0.30023037       0.00794376       5.45576389      -0.78295391      -0.42330267       0.75705568       0.14258160      -0.02912087
O       -0.27506008      -1.04490903       0.00582699       6.08037964       1.18098515      -0.51859695      -0.53526318      -0.00293953       0.04314514
H       -1.87267047       0.23037738       0.03448509      -0.04505419       0.01870235       0.27550326      -0.04716337       0.01190880      -0.00681562
H        0.69726749      -1.09597991      -0.05245632       0.87220168      -0.41663278       0.71450882       0.46733587      -0.03197006      -0.01448161
H       -0.43756558       0.87998729       0.90498449       0.63788730      -0.13487010      -0.04519662      -0.31398321      -0.05055792      -0.06844971
H       -0.47494759       0.86353927      -0.91152969       0.06259361       0.13476928      -0.00291584      -0.26563352      -0.03159176       0.09600563
H        3.13727877      -0.13324536       0.01074569      -0.36793659       0.00000000       0.00000000      -0.06234827      -0.03743113      -0.02028295
7
Lattice="13.0 0.0 0.0 0.0 9.0 0.0 0.0 0.0 9.0" Properties=species:S:1:pos:R:3:momenta:R:3:forces:R:3 EPS_SCF=1e-06 energy=-670.3236477611492 units=gap_units Integrated_spin_density=1.924e-05 opt_dir=/home/tks32/dft_pbe/apr_8_opt_fragments_subset/singlepoint_5_CH3OH time=0.0 free_energy=-670.3236477611492 cutoff=8.0 nneightol=1.2 pbc="T T T"
C       -0.76711523       0.30158400       0.00766729       5.45576389      -0.78295391      -0.42330267       0.23880700       0.02803247      -0.00809241
O       -0.28014174      -1.04493694       0.00623660       6.08037964       1.18098515      -0.51859695       0.02251279      -0.04352137       0.01050121
H       -1.87311823       0.23049044       0.03442039      -0.04505419       0.01870235       0.27550326       0.16208009       0.05933025      -0.01372465
H        0.70170426      -1.09628342      -0.05259381       0.87220168      -0.41663278       0.71450882       0.04016258      -0.05668009       0.01269072
H       -0.44054646       0.87950731       0.90433465       0.63788730      -0.13487010      -0.04519662      -0.21783086       0.01523838       0.02742456
H       -0.47746944       0.86323935      -0.91061823       0.06259361       0.13476928      -0.00291584      -0.17534234       0.03262205      -0.00882946
H        3.13668685      -0.13360072       0.01055313      -0.36793659       0.00000000       0.00000000      -0.07038927      -0.03502170      -0.01996998
7
Lattice="13.0 0.0 0.0 0.0 9.0 0.0 0.0 0.0 9.0" Properties=species:S:1:pos:R:3:momenta:R:3:forces:R:3 EPS_SCF=1e-06 energy=-670.3231405604696 units=gap_units Integrated_spin_density=1.924e-05 opt_dir=/home/tks32/dft_pbe/apr_8_opt_fragments_subset/singlepoint_5_CH3OH time=0.0 free_energy=-670.3231405604696 cutoff=8.0 nneightol=1.2 pbc="T T T"
C       -0.75777468       0.30313940       0.00732115       5.45576389      -0.78295391      -0.42330267      -0.33020701      -0.11072684       0.01438604
O       -0.28444448      -1.04548546       0.00673154       6.08037964       1.18098515      -0.51859695       0.54934872      -0.05914196      -0.02080662
H       -1.87157198       0.23130572       0.03419709      -0.04505419       0.01870235       0.27550326       0.35214313       0.09330705      -0.02099422
H        0.70618036      -1.09723824      -0.05256492       0.87220168      -0.41663278       0.71450882      -0.34683225      -0.08350150       0.03773927
H       -0.44584896       0.87925858       0.90407960       0.63788730      -0.13487010      -0.04519662      -0.08590656       0.08880110       0.13629301
H       -0.48184785       0.86336174      -0.90990411       0.06259361       0.13476928      -0.00291584      -0.05242346       0.10318917      -0.12723041
H        3.13530760      -0.13434173       0.01013966      -0.36793659       0.00000000       0.00000000      -0.08612258      -0.03192702      -0.01938708
7
Lattice="13.0 0.0 0.0 0.0 9.0 0.0 0.0 0.0 9.0" Properties=species:S:1:pos:R:3:momenta:R:3:forces:R:3 EPS_SCF=1e-06 energy=-670.3247686838523 units=gap_units Integrated_spin_density=1.924e-05 opt_dir=/home/tks32/dft_pbe/apr_8_opt_fragments_subset/singlepoint_5_CH3OH time=0.0 free_energy=-670.3247686838523 cutoff=8.0 nneightol=1.2 pbc="T T T"
C       -0.75855841       0.30287660       0.00735529       5.45576389      -0.78295391      -0.42330267      -0.24739380      -0.08898341       0.01040186
O       -0.28314063      -1.04562583       0.00668216       6.08037964       1.18098515      -0.51859695       0.43383655      -0.04497303      -0.01421996
H       -1.87073619       0.23152718       0.03414727      -0.04505419       0.01870235       0.27550326       0.30707347       0.07830595      -0.01983991
H        0.70535717      -1.09743643      -0.05247535       0.87220168      -0.41663278       0.71450882      -0.25469263      -0.07815577       0.03204384
H       -0.44605286       0.87946935       0.90440309       0.63788730      -0.13487010      -0.04519662      -0.09261829       0.07591141       0.11773222
H       -0.48197227       0.86360665      -0.91020609       0.06259361       0.13476928      -0.00291584      -0.05914175       0.09003984      -0.10676390
H        3.13510319      -0.13441750       0.01009364      -0.36793659       0.00000000       0.00000000      -0.08706355      -0.03214499      -0.01935416
7
Lattice="13.0 0.0 0.0 0.0 9.0 0.0 0.0 0.0 9.0" Properties=species:S:1:pos:R:3:momenta:R:3:forces:R:3 EPS_SCF=1e-06 energy=-670.3268179990052 units=gap_units Integrated_spin_density=1.924e-05 opt_dir=/home/tks32/dft_pbe/apr_8_opt_fragments_subset/singlepoint_5_CH3OH time=0.0 free_energy=-670.3268179990052 cutoff=8.0 nneightol=1.2 pbc="T T T"
C       -0.75992392       0.30240263       0.00741378       5.45576389      -0.78295391      -0.42330267      -0.09781423      -0.04962911       0.00338782
O       -0.28080949      -1.04587217       0.00659977       6.08037964       1.18098515      -0.51859695       0.22873609      -0.01978978      -0.00255604
H       -1.86916456       0.23193545       0.03404948      -0.04505419       0.01870235       0.27550326       0.22355243       0.05111744      -0.01774605
H        0.70393667      -1.09782335      -0.05230923       0.87220168      -0.41663278       0.71450882      -0.09109050      -0.06838992       0.02194409
H       -0.44648351       0.87986160       0.90500839       0.63788730      -0.13487010      -0.04519662      -0.10393133       0.05277347       0.08433089
H       -0.48224207       0.86406734      -0.91076276       0.06259361       0.13476928      -0.00291584      -0.07052898       0.06645421      -0.07007549
H        3.13468690      -0.13457148       0.01000058      -0.36793659       0.00000000       0.00000000      -0.08892349      -0.03253631      -0.01928523
7
Lattice="13.0 0.0 0.0 0.0 9.0 0.0 0.0 0.0 9.0" Properties=species:S:1:pos:R:3:momenta:R:3:forces:R:3 EPS_SCF=1e-06 energy=-670.3278868799384 units=gap_units Integrated_spin_density=1.924e-05 opt_dir=/home/tks32/dft_pbe/apr_8_opt_fragments_subset/singlepoint_5_CH3OH time=0.0 free_energy=-670.3278868799384 cutoff=8.0 nneightol=1.2 pbc="T T T"
C       -0.76147224       0.30181402       0.00747748       5.45576389      -0.78295391      -0.42330267       0.08679821       0.00003519      -0.00485459
O       -0.27796468      -1.04615849       0.00651727       6.08037964       1.18098515      -0.51859695      -0.01516556       0.01028920       0.01121764
H       -1.86702023       0.23246978       0.03390353      -0.04505419       0.01870235       0.27550326       0.11485479       0.01685892      -0.01513969
H        0.70236082      -1.09839486      -0.05208807       0.87220168      -0.41663278       0.71450882       0.10318940      -0.05574395       0.00999161
H       -0.44721042       0.88038693       0.90582848       0.63788730      -0.13487010      -0.04519662      -0.11553606       0.02420580       0.04282314
H       -0.48271516       0.86469893      -0.91149255       0.06259361       0.13476928      -0.00291584      -0.08241876       0.03736842      -0.02486744
H        3.13402191      -0.13481629       0.00985387      -0.36793659       0.00000000       0.00000000      -0.09172201      -0.03301357      -0.01917067
