7
Lattice="13.0 0.0 0.0 0.0 9.0 0.0 0.0 0.0 9.0" Properties=species:S:1:pos:R:3:momenta:R:3:forces:R:3 EPS_SCF=1e-06 energy=-670.1296225324529 units=gap_units Integrated_spin_density=1.924e-05 opt_dir=/home/tks32/dft_pbe/apr_8_opt_fragments_subset/singlepoint_5_CH3OH time=10.0 free_energy=-670.1296225324529 cutoff=8.0 nneightol=1.2 pbc="T T T"
C       -0.73497735       0.30633938      -0.03983546       0.50167626       0.24066968       0.47538861      -0.03127817       0.14941396       0.44763431
O       -0.05438557      -0.93748090      -0.26489921       0.70939575      -0.11562789      -1.04656275      -1.18292488       0.13533959      -0.68577690
H       -1.81814071       0.11149415       0.05294709      -0.27333333      -0.16629365       0.24585579      -0.01781844      -0.06710367      -0.03884616
H        0.66325019      -1.07234257       0.34722566      -0.23330862      -0.07209215       0.68984926       0.92821832      -0.24426213       0.72546820
H       -0.42779944       0.87715818       0.87978203      -0.09795586       0.34438789      -0.11049968      -0.33102841      -0.08954072      -0.19807510
H       -0.60187363       0.95478016      -0.91439268      -0.01704502      -0.24621251      -0.14217714      -0.01013923       0.16217521      -0.19985055
H        2.97392651      -0.23994840      -0.06082743      -0.58942918       0.01516864      -0.11185409       0.64497081      -0.04602224      -0.05055379
7
Lattice="13.0 0.0 0.0 0.0 9.0 0.0 0.0 0.0 9.0" Properties=species:S:1:pos:R:3:momenta:R:3:forces:R:3 EPS_SCF=1e-06 energy=-670.154220674695 units=gap_units Integrated_spin_density=1.924e-05 opt_dir=/home/tks32/dft_pbe/apr_8_opt_fragments_subset/singlepoint_5_CH3OH time=10.0 free_energy=-670.154220674695 cutoff=8.0 nneightol=1.2 pbc="T T T"
C       -0.73529013       0.30783352      -0.03535912       0.50167626       0.24066968       0.47538861      -0.16250605       0.13911932       0.00258514
O       -0.06621482      -0.93612750      -0.27175698       0.70939575      -0.11562789      -1.04656275      -0.20911376      -0.07933017       0.15266284
H       -1.81831889       0.11082311       0.05255863      -0.27333333      -0.16629365       0.24585579      -0.05525229      -0.01947018      -0.00489006
H        0.67253237      -1.07478519       0.35448034      -0.23330862      -0.07209215       0.68984926       0.07837371      -0.11525789      -0.05099220
H       -0.43110972       0.87626277       0.87780128      -0.09795586       0.34438789      -0.11049968      -0.24606102       0.00146196      -0.00687091
H       -0.60197502       0.95640191      -0.91639119      -0.01704502      -0.24621251      -0.14217714      -0.02380072       0.11485149      -0.04618892
H        2.98037622      -0.24040862      -0.06133297      -0.58942918       0.01516864      -0.11185409       0.61836012      -0.04137453      -0.04630588
7
Lattice="13.0 0.0 0.0 0.0 9.0 0.0 0.0 0.0 9.0" Properties=species:S:1:pos:R:3:momenta:R:3:forces:R:3 EPS_SCF=1e-06 energy=-670.1532116796517 units=gap_units Integrated_spin_density=1.924e-05 opt_dir=/home/tks32/dft_pbe/apr_8_opt_fragments_subset/singlepoint_5_CH3OH time=10.0 free_energy=-670.1532116796517 cutoff=8.0 nneightol=1.2 pbc="T T T"
C       -0.73762453       0.31093570      -0.03129775       0.50167626       0.24066968       0.47538861      -0.21803235       0.04348166      -0.43895115
O       -0.07950282      -0.93591160      -0.27600042       0.70939575      -0.11562789      -1.04656275       0.63532750      -0.22055857       0.88383228
H       -1.81917725       0.10997322       0.05214724      -0.27333333      -0.16629365       0.24585579      -0.11584556       0.03086259       0.02037037
H        0.68187641      -1.07843957       0.36036538      -0.23330862      -0.07209215       0.68984926      -0.68397215       0.01658613      -0.72843940
H       -0.43719740       0.87547537       0.87593180      -0.09795586       0.34438789      -0.11049968      -0.14531829       0.10486421       0.19248863
H       -0.60236694       0.95931238      -0.91877333      -0.01704502      -0.24621251      -0.14217714      -0.02554880       0.05347123       0.11307166
H        2.99399254      -0.24134550      -0.06237292      -0.58942918       0.01516864      -0.11185409       0.55338965      -0.02870725      -0.04237240
7
Lattice="13.0 0.0 0.0 0.0 9.0 0.0 0.0 0.0 9.0" Properties=species:S:1:pos:R:3:momenta:R:3:forces:R:3 EPS_SCF=1e-06 energy=-670.1597307406082 units=gap_units Integrated_spin_density=1.924e-05 opt_dir=/home/tks32/dft_pbe/apr_8_opt_fragments_subset/singlepoint_5_CH3OH time=10.0 free_energy=-670.1597307406082 cutoff=8.0 nneightol=1.2 pbc="T T T"
C       -0.73816961       0.31104441      -0.03239513       0.50167626       0.24066968       0.47538861      -0.17126187       0.03470549      -0.33827307
O       -0.07791450      -0.93646300      -0.27379084       0.70939575      -0.11562789      -1.04656275       0.44548452      -0.17181634       0.72290315
H       -1.81946686       0.11005038       0.05219816      -0.27333333      -0.16629365       0.24585579      -0.11183093       0.02215537       0.00858511
H        0.68016648      -1.07839811       0.35854429      -0.23330862      -0.07209215       0.68984926      -0.53095830       0.00119355      -0.58555267
H       -0.43756070       0.87573754       0.87641303      -0.09795586       0.34438789      -0.11049968      -0.15921380       0.08600997       0.14911770
H       -0.60243082       0.95944606      -0.91849065      -0.01704502      -0.24621251      -0.14217714      -0.01941869       0.05410735       0.08677921
H        2.99537601      -0.24141726      -0.06247885      -0.58942918       0.01516864      -0.11185409       0.54719907      -0.02635538      -0.04355944
7
Lattice="13.0 0.0 0.0 0.0 9.0 0.0 0.0 0.0 9.0" Properties=species:S:1:pos:R:3:momenta:R:3:forces:R:3 EPS_SCF=1e-06 energy=-670.1681104685376 units=gap_units Integrated_spin_density=1.924e-05 opt_dir=/home/tks32/dft_pbe/apr_8_opt_fragments_subset/singlepoint_5_CH3OH time=10.0 free_energy=-670.1681104685376 cutoff=8.0 nneightol=1.2 pbc="T T T"
C       -0.73914107       0.31123969      -0.03433260       0.50167626       0.24066968       0.47538861      -0.09181260       0.01844704      -0.16149567
O       -0.07523415      -0.93744170      -0.26977240       0.70939575      -0.11562789      -1.04656275       0.10262200      -0.08517821       0.43235002
H       -1.82004152       0.11018203       0.05226810      -0.27333333      -0.16629365       0.24585579      -0.10297821       0.00750264      -0.01241634
H        0.67713668      -1.07835744       0.35526114      -0.23330862      -0.07209215       0.68984926      -0.25216070      -0.02679116      -0.32724445
H       -0.43833472       0.87621499       0.87726483      -0.09795586       0.34438789      -0.11049968      -0.18217531       0.05309244       0.07361778
H       -0.60254283       0.95971829      -0.91799258      -0.01704502      -0.24621251      -0.14217714      -0.00782254       0.05482456       0.04076616
H        2.99815760      -0.24155586      -0.06269650      -0.58942918       0.01516864      -0.11185409       0.53432735      -0.02189731      -0.04557750
7
Lattice="13.0 0.0 0.0 0.0 9.0 0.0 0.0 0.0 9.0" Properties=species:S:1:pos:R:3:momenta:R:3:forces:R:3 EPS_SCF=1e-06 energy=-670.1730554473538 units=gap_units Integrated_spin_density=1.924e-05 opt_dir=/home/tks32/dft_pbe/apr_8_opt_fragments_subset/singlepoint_5_CH3OH time=10.0 free_energy=-670.1730554473538 cutoff=8.0 nneightol=1.2 pbc="T T T"
C       -0.74032604       0.31147786      -0.03662276       0.50167626       0.24066968       0.47538861      -0.00619033      -0.00061714       0.04553805
O       -0.07247460      -0.93861074      -0.26469288       0.70939575      -0.11562789      -1.04656275      -0.31181509       0.01585097       0.08025223
H       -1.82090716       0.11032590       0.05228904      -0.27333333      -0.16629365       0.24585579      -0.08774795      -0.00781401      -0.03814093
H        0.67355664      -1.07841149       0.35119903      -0.23330862      -0.07209215       0.68984926       0.08941851      -0.06018179      -0.01452953
H       -0.43964775       0.87682434       0.87828055      -0.09795586       0.34438789      -0.11049968      -0.20516239       0.01464568      -0.01345880
H       -0.60267010       0.96014881      -0.91740637      -0.01704502      -0.24621251      -0.14217714       0.00787379       0.05366033      -0.01188889
H        3.00246901      -0.24175469      -0.06304660      -0.58942918       0.01516864      -0.11185409       0.51362346      -0.01554404      -0.04777213
7
Lattice="13.0 0.0 0.0 0.0 9.0 0.0 0.0 0.0 9.0" Properties=species:S:1:pos:R:3:momenta:R:3:forces:R:3 EPS_SCF=1e-06 energy=-670.1742128395877 units=gap_units Integrated_spin_density=1.924e-05 opt_dir=/home/tks32/dft_pbe/apr_8_opt_fragments_subset/singlepoint_5_CH3OH time=10.0 free_energy=-670.1742128395877 cutoff=8.0 nneightol=1.2 pbc="T T T"
C       -0.74141705       0.31168977      -0.03850343       0.50167626       0.24066968       0.47538861       0.04829092      -0.01172920       0.21320952
O       -0.07122683      -0.93960005      -0.25980324       0.70939575      -0.11562789      -1.04656275      -0.65062314       0.09061959      -0.21220392
H       -1.82203400       0.11042441       0.05215671      -0.27333333      -0.16629365       0.24585579      -0.06593225      -0.01619959      -0.06186315
H        0.67068899      -1.07869865       0.34748554      -0.23330862      -0.07209215       0.68984926       0.37467898      -0.08476564       0.24247634
H       -0.44164261       0.87743080       0.87914135      -0.09795586       0.34438789      -0.11049968      -0.21555325      -0.01712322      -0.08202956
H       -0.60275345       0.96074896      -0.91692590      -0.01704502      -0.24621251      -0.14217714       0.02473158       0.04670027      -0.05038971
H        3.00838495      -0.24199524      -0.06355103      -0.58942918       0.01516864      -0.11185409       0.48440717      -0.00750221      -0.04919952
7
Lattice="13.0 0.0 0.0 0.0 9.0 0.0 0.0 0.0 9.0" Properties=species:S:1:pos:R:3:momenta:R:3:forces:R:3 EPS_SCF=1e-06 energy=-670.1748465910945 units=gap_units Integrated_spin_density=1.924e-05 opt_dir=/home/tks32/dft_pbe/apr_8_opt_fragments_subset/singlepoint_5_CH3OH time=10.0 free_energy=-670.1748465910945 cutoff=8.0 nneightol=1.2 pbc="T T T"
C       -0.74138686       0.31168244      -0.03837017       0.50167626       0.24066968       0.47538861       0.04059289      -0.00903677       0.20110622
O       -0.07163347      -0.93954341      -0.25993587       0.70939575      -0.11562789      -1.04656275      -0.62255552       0.08215196      -0.19049723
H       -1.82207521       0.11041429       0.05211805      -0.27333333      -0.16629365       0.24585579      -0.06521416      -0.01445683      -0.06103710
H        0.67092317      -1.07875163       0.34763709      -0.23330862      -0.07209215       0.68984926       0.35210755      -0.08159563       0.22228522
H       -0.44177733       0.87742010       0.87909009      -0.09795586       0.34438789      -0.11049968      -0.21258747      -0.01508613      -0.07659802
H       -0.60273799       0.96077814      -0.91695740      -0.01704502      -0.24621251      -0.14217714       0.02461201       0.04521942      -0.04623590
H        3.00868770      -0.24199993      -0.06358178      -0.58942918       0.01516864      -0.11185409       0.48304469      -0.00719602      -0.04902319
7
Lattice="13.0 0.0 0.0 0.0 9.0 0.0 0.0 0.0 9.0" Properties=species:S:1:pos:R:3:momenta:R:3:forces:R:3 EPS_SCF=1e-06 energy=-670.1760129015809 units=gap_units Integrated_spin_density=1.924e-05 opt_dir=/home/tks32/dft_pbe/apr_8_opt_fragments_subset/singlepoint_5_CH3OH time=10.0 free_energy=-670.1760129015809 cutoff=8.0 nneightol=1.2 pbc="T T T"
C       -0.74133168       0.31166961      -0.03811145       0.50167626       0.24066968       0.47538861       0.02572496      -0.00388463       0.17762660
O       -0.07242910      -0.93943574      -0.26018671       0.70939575      -0.11562789      -1.04656275      -0.56827541       0.06576380      -0.14858148
H       -1.82215731       0.11039520       0.05204112      -0.27333333      -0.16629365       0.24585579      -0.06385561      -0.01106088      -0.05944031
H        0.67137693      -1.07885562       0.34792689      -0.23330862      -0.07209215       0.68984926       0.30848236      -0.07544543       0.18329627
H       -0.44204530       0.87740005       0.87899108      -0.09795586       0.34438789      -0.11049968      -0.20678319      -0.01113176      -0.06603759
H       -0.60270709       0.96083562      -0.91701765      -0.01704502      -0.24621251      -0.14217714       0.02440912       0.04233879      -0.03818591
H        3.00929355      -0.24200911      -0.06364329      -0.58942918       0.01516864      -0.11185409       0.48029776      -0.00657987      -0.04867759
7
Lattice="13.0 0.0 0.0 0.0 9.0 0.0 0.0 0.0 9.0" Properties=species:S:1:pos:R:3:momenta:R:3:forces:R:3 EPS_SCF=1e-06 energy=-670.1775346802198 units=gap_units Integrated_spin_density=1.924e-05 opt_dir=/home/tks32/dft_pbe/apr_8_opt_fragments_subset/singlepoint_5_CH3OH time=10.0 free_energy=-670.1775346802198 cutoff=8.0 nneightol=1.2 pbc="T T T"
C       -0.74126238       0.31165509      -0.03774296       0.50167626       0.24066968       0.47538861       0.00476490       0.00326039       0.14424566
O       -0.07357911      -0.93928862      -0.26052592       0.70939575      -0.11562789      -1.04656275      -0.49149673       0.04255572      -0.08944378
H       -1.82227995       0.11036957       0.05192650      -0.27333333      -0.16629365       0.24585579      -0.06201294      -0.00619289      -0.05718847
H        0.67202088      -1.07900683       0.34832768      -0.23330862      -0.07209215       0.68984926       0.24682918      -0.06668826       0.12828335
H       -0.44244437       0.87737351       0.87885155      -0.09795586       0.34438789      -0.11049968      -0.19839415      -0.00550591      -0.05096424
H       -0.60266065       0.96091968      -0.91710104      -0.01704502      -0.24621251      -0.14217714       0.02419794       0.03821335      -0.02675552
H        3.01020557      -0.24202240      -0.06373581      -0.58942918       0.01516864      -0.11185409       0.47611180      -0.00564241      -0.04817700
7
Lattice="13.0 0.0 0.0 0.0 9.0 0.0 0.0 0.0 9.0" Properties=species:S:1:pos:R:3:momenta:R:3:forces:R:3 EPS_SCF=1e-06 energy=-670.1792046281192 units=gap_units Integrated_spin_density=1.924e-05 opt_dir=/home/tks32/dft_pbe/apr_8_opt_fragments_subset/singlepoint_5_CH3OH time=10.0 free_energy=-670.1792046281192 cutoff=8.0 nneightol=1.2 pbc="T T T"
C       -0.74119595       0.31164480      -0.03728847       0.50167626       0.24066968       0.47538861      -0.02063903       0.01170562       0.10321310
O       -0.07503271      -0.93911997      -0.26090738       0.70939575      -0.11562789      -1.04656275      -0.39775689       0.01418060      -0.01751279
H       -1.82244315       0.11034123       0.05177464      -0.27333333      -0.16629365       0.24585579      -0.05991806      -0.00012848      -0.05446466
H        0.67281065      -1.07919971       0.34879765      -0.23330862      -0.07209215       0.68984926       0.17163162      -0.05586821       0.06134829
H       -0.44297250       0.87734494       0.87868256      -0.09795586       0.34438789      -0.11049968      -0.18780169       0.00140993      -0.03232399
H       -0.60259823       0.96102788      -0.91719887      -0.01704502      -0.24621251      -0.14217714       0.02409377       0.03306066      -0.01271658
H        3.01143190      -0.24203917      -0.06386012      -0.58942918       0.01516864      -0.11185409       0.47039028      -0.00436013      -0.04754337
7
Lattice="13.0 0.0 0.0 0.0 9.0 0.0 0.0 0.0 9.0" Properties=species:S:1:pos:R:3:momenta:R:3:forces:R:3 EPS_SCF=1e-06 energy=-670.1808420653499 units=gap_units Integrated_spin_density=1.924e-05 opt_dir=/home/tks32/dft_pbe/apr_8_opt_fragments_subset/singlepoint_5_CH3OH time=10.0 free_energy=-670.1808420653499 cutoff=8.0 nneightol=1.2 pbc="T T T"
C       -0.74115595       0.31164676      -0.03678048       0.50167626       0.24066968       0.47538861      -0.04822265       0.02054004       0.05763174
O       -0.07672228      -0.93895458      -0.26126749       0.70939575      -0.11562789      -1.04656275      -0.29445736      -0.01713320       0.06133866
H       -1.82264747       0.11031560       0.05158575      -0.27333333      -0.16629365       0.24585579      -0.05787277       0.00675217      -0.05153090
H        0.67368598      -1.07942686       0.34927943      -0.23330862      -0.07209215       0.68984926       0.08883621      -0.04369556      -0.01208697
H       -0.44362786       0.87732057       0.87849949      -0.09795586       0.34438789      -0.11049968      -0.17552886       0.00907735      -0.01143590
H       -0.60251897       0.96115695      -0.91729912      -0.01704502      -0.24621251      -0.14217714       0.02425308       0.02715306       0.00289062
H        3.01298654      -0.24205844      -0.06401758      -0.58942918       0.01516864      -0.11185409       0.46299236      -0.00269386      -0.04680725
7
Lattice="13.0 0.0 0.0 0.0 9.0 0.0 0.0 0.0 9.0" Properties=species:S:1:pos:R:3:momenta:R:3:forces:R:3 EPS_SCF=1e-06 energy=-670.1823480456296 units=gap_units Integrated_spin_density=1.924e-05 opt_dir=/home/tks32/dft_pbe/apr_8_opt_fragments_subset/singlepoint_5_CH3OH time=10.0 free_energy=-670.1823480456296 cutoff=8.0 nneightol=1.2 pbc="T T T"
C       -0.74117180       0.31167062      -0.03626131       0.50167626       0.24066968       0.47538861      -0.07507501       0.02865774       0.01156270
O       -0.07855955      -0.93882416      -0.26152563       0.70939575      -0.11562789      -1.04656275      -0.19093522      -0.04855260       0.13977875
H       -1.82289359       0.11029980       0.05136033      -0.27333333      -0.16629365       0.24585579      -0.05623071       0.01394760      -0.04873817
H        0.67456932      -1.07967829       0.34970004      -0.23330862      -0.07209215       0.68984926       0.00588537      -0.03105448      -0.08527445
H       -0.44440645       0.87730840       0.87832243      -0.09795586       0.34438789      -0.11049968      -0.16227542       0.01677412       0.00994669
H       -0.60242154       0.96130232      -0.91738623      -0.01704502      -0.24621251      -0.14217714       0.02486681       0.02082080       0.01873419
H        3.01488361      -0.24207869      -0.06420962      -0.58942918       0.01516864      -0.11185409       0.45376418      -0.00059319      -0.04600972
7
Lattice="13.0 0.0 0.0 0.0 9.0 0.0 0.0 0.0 9.0" Properties=species:S:1:pos:R:3:momenta:R:3:forces:R:3 EPS_SCF=1e-06 energy=-670.1837379594459 units=gap_units Integrated_spin_density=1.924e-05 opt_dir=/home/tks32/dft_pbe/apr_8_opt_fragments_subset/singlepoint_5_CH3OH time=10.0 free_energy=-670.1837379594459 cutoff=8.0 nneightol=1.2 pbc="T T T"
C       -0.74127350       0.31172546      -0.03578060       0.50167626       0.24066968       0.47538861      -0.09791516       0.03490035      -0.03023409
O       -0.08043545      -0.93876333      -0.26159517       0.70939575      -0.11562789      -1.04656275      -0.09772909      -0.07686609       0.20963758
H       -1.82318059       0.11030182       0.05110069      -0.27333333      -0.16629365       0.24585579      -0.05533050       0.02085841      -0.04649628
H        0.67537117      -1.07994074       0.34997927      -0.23330862      -0.07209215       0.68984926      -0.06887188      -0.01895374      -0.15070981
H       -0.44529616       0.87731699       0.87817465      -0.09795586       0.34438789      -0.11049968      -0.14891419       0.02363426       0.02972703
H       -0.60230490       0.96145740      -0.91744281      -0.01704502      -0.24621251      -0.14217714       0.02612420       0.01444653       0.03327690
H        3.01711943      -0.24209759      -0.06443604      -0.58942918       0.01516864      -0.11185409       0.44263662       0.00198028      -0.04520133
7
Lattice="13.0 0.0 0.0 0.0 9.0 0.0 0.0 0.0 9.0" Properties=species:S:1:pos:R:3:momenta:R:3:forces:R:3 EPS_SCF=1e-06 energy=-670.1852737581755 units=gap_units Integrated_spin_density=1.924e-05 opt_dir=/home/tks32/dft_pbe/apr_8_opt_fragments_subset/singlepoint_5_CH3OH time=10.0 free_energy=-670.1852737581755 cutoff=8.0 nneightol=1.2 pbc="T T T"
C       -0.74150949       0.31182798      -0.03534647       0.50167626       0.24066968       0.47538861      -0.11531635       0.03860133      -0.06644828
O       -0.08242764      -0.93880932      -0.26137432       0.70939575      -0.11562789      -1.04656275      -0.01736220      -0.10130551       0.26875454
H       -1.82354117       0.11033264       0.05077940      -0.27333333      -0.16629365       0.24585579      -0.05543375       0.02751698      -0.04507897
H        0.67606984      -1.08022676       0.35004746      -0.23330862      -0.07209215       0.68984926      -0.13356405      -0.00726205      -0.20657094
H       -0.44638275       0.87735815       0.87806943      -0.09795586       0.34438789      -0.11049968      -0.13502612       0.02930667       0.04746007
H       -0.60215333       0.96163089      -0.91745284      -0.01704502      -0.24621251      -0.14217714       0.02840843       0.00777474       0.04623512
H        3.01994455      -0.24211358      -0.06472267      -0.58942918       0.01516864      -0.11185409       0.42829404       0.00536784      -0.04435155
7
Lattice="13.0 0.0 0.0 0.0 9.0 0.0 0.0 0.0 9.0" Properties=species:S:1:pos:R:3:momenta:R:3:forces:R:3 EPS_SCF=1e-06 energy=-670.1871739435159 units=gap_units Integrated_spin_density=1.924e-05 opt_dir=/home/tks32/dft_pbe/apr_8_opt_fragments_subset/singlepoint_5_CH3OH time=10.0 free_energy=-670.1871739435159 cutoff=8.0 nneightol=1.2 pbc="T T T"
C       -0.74192638       0.31199085      -0.03502165       0.50167626       0.24066968       0.47538861      -0.12335639       0.03838925      -0.09081834
O       -0.08442965      -0.93901567      -0.26072895       0.70939575      -0.11562789      -1.04656275       0.03697363      -0.11791483       0.30700329
H       -1.82398652       0.11040686       0.05038943      -0.27333333      -0.16629365       0.24585579      -0.05685073       0.03321891      -0.04507754
H        0.67655033      -1.08052176       0.34978723      -0.23330862      -0.07209215       0.68984926      -0.17777868       0.00287544      -0.24363209
H       -0.44767395       0.87744545       0.87804047      -0.09795586       0.34438789      -0.11049968      -0.12154664       0.03255344       0.06037378
H       -0.60195802       0.96181517      -0.91738942      -0.01704502      -0.24621251      -0.14217714       0.03206148       0.00118829       0.05565725
H        3.02342419      -0.24212090      -0.06507712      -0.58942918       0.01516864      -0.11185409       0.41049733       0.00968951      -0.04350635
7
Lattice="13.0 0.0 0.0 0.0 9.0 0.0 0.0 0.0 9.0" Properties=species:S:1:pos:R:3:momenta:R:3:forces:R:3 EPS_SCF=1e-06 energy=-670.1896898855748 units=gap_units Integrated_spin_density=1.924e-05 opt_dir=/home/tks32/dft_pbe/apr_8_opt_fragments_subset/singlepoint_5_CH3OH time=10.0 free_energy=-670.1896898855748 cutoff=8.0 nneightol=1.2 pbc="T T T"
C       -0.74256658       0.31222295      -0.03486617       0.50167626       0.24066968       0.47538861      -0.11852672       0.03310534      -0.09720252
O       -0.08634812      -0.93943698      -0.25952474       0.70939575      -0.11562789      -1.04656275       0.05261139      -0.12302838       0.31485830
H       -1.82453280       0.11054151       0.04991972      -0.27333333      -0.16629365       0.24585579      -0.05967787       0.03731401      -0.04707368
H        0.67670055      -1.08080917       0.34908155      -0.23330862      -0.07209215       0.68984926      -0.19144383       0.01037612      -0.25323648
H       -0.44917831       0.87759185       0.87812261      -0.09795586       0.34438789      -0.11049968      -0.10934438       0.03209112       0.06571286
H       -0.60170535       0.96200020      -0.91722426      -0.01704502      -0.24621251      -0.14217714       0.03743655      -0.00493916       0.05963988
H        3.02763061      -0.24211037      -0.06550871      -0.58942918       0.01516864      -0.11185409       0.38894485       0.01508096      -0.04269836
7
Lattice="13.0 0.0 0.0 0.0 9.0 0.0 0.0 0.0 9.0" Properties=species:S:1:pos:R:3:momenta:R:3:forces:R:3 EPS_SCF=1e-06 energy=-670.1929555700148 units=gap_units Integrated_spin_density=1.924e-05 opt_dir=/home/tks32/dft_pbe/apr_8_opt_fragments_subset/singlepoint_5_CH3OH time=10.0 free_energy=-670.1929555700148 cutoff=8.0 nneightol=1.2 pbc="T T T"
C       -0.74346249       0.31252612      -0.03492499       0.50167626       0.24066968       0.47538861      -0.09870833       0.02207340      -0.08065444
O       -0.08813825      -0.94012536      -0.25763790       0.70939575      -0.11562789      -1.04656275       0.01944219      -0.11401806       0.28496929
H       -1.82520633       0.11075711       0.04934989      -0.27333333      -0.16629365       0.24585579      -0.06364030       0.03938153      -0.05153659
H        0.67642975      -1.08107188       0.34782506      -0.23330862      -0.07209215       0.68984926      -0.16629604       0.01440812      -0.22872114
H       -0.45091242       0.87780768       0.87834837      -0.09795586       0.34438789      -0.11049968      -0.09896763       0.02676376       0.06123293
H       -0.60137226       0.96217314      -0.91692937      -0.01704502      -0.24621251      -0.14217714       0.04489153      -0.01029859       0.05663632
H        3.03266199      -0.24206682      -0.06603107      -0.58942918       0.01516864      -0.11185409       0.36327858       0.02168984      -0.04192638
7
Lattice="13.0 0.0 0.0 0.0 9.0 0.0 0.0 0.0 9.0" Properties=species:S:1:pos:R:3:momenta:R:3:forces:R:3 EPS_SCF=1e-06 energy=-670.1968282173945 units=gap_units Integrated_spin_density=1.924e-05 opt_dir=/home/tks32/dft_pbe/apr_8_opt_fragments_subset/singlepoint_5_CH3OH time=10.0 free_energy=-670.1968282173945 cutoff=8.0 nneightol=1.2 pbc="T T T"
C       -0.74462374       0.31288804      -0.03520442       0.50167626       0.24066968       0.47538861      -0.06482938       0.00565225      -0.03947578
O       -0.08986497      -0.94112218      -0.25498109       0.70939575      -0.11562789      -1.04656275      -0.06585433      -0.09074156       0.21534834
H       -1.82605038       0.11107938       0.04864211      -0.27333333      -0.16629365       0.24585579      -0.06782839       0.03954569      -0.05862270
H        0.67570493      -1.08129363       0.34594912      -0.23330862      -0.07209215       0.68984926      -0.09905462       0.01475362      -0.16830474
H       -0.45290782       0.87809560       0.87874060      -0.09795586       0.34438789      -0.11049968      -0.09022836       0.01587447       0.04611878
H       -0.60091807       0.96231690      -0.91648100      -0.01704502      -0.24621251      -0.14217714       0.05473752      -0.01475726       0.04605641
H        3.03866005      -0.24196410      -0.06666532      -0.58942918       0.01516864      -0.11185409       0.33305757       0.02967280      -0.04112031
7
Lattice="13.0 0.0 0.0 0.0 9.0 0.0 0.0 0.0 9.0" Properties=species:S:1:pos:R:3:momenta:R:3:forces:R:3 EPS_SCF=1e-06 energy=-670.2008982509095 units=gap_units Integrated_spin_density=1.924e-05 opt_dir=/home/tks32/dft_pbe/apr_8_opt_fragments_subset/singlepoint_5_CH3OH time=10.0 free_energy=-670.2008982509095 cutoff=8.0 nneightol=1.2 pbc="T T T"
C       -0.74601271       0.31326862      -0.03562449       0.50167626       0.24066968       0.47538861      -0.02386373      -0.01357977       0.02062024
O       -0.09182050      -0.94244065      -0.25156228       0.70939575      -0.11562789      -1.04656275      -0.19040499      -0.05849766       0.11631107
H       -1.82713441       0.11154233       0.04772683      -0.27333333      -0.16629365       0.24585579      -0.07032873       0.03906720      -0.06777676
H        0.67462733      -1.08146132       0.34347673      -0.23330862      -0.07209215       0.68984926       0.00120762       0.01260858      -0.08140911
H       -0.45521842       0.87843926       0.87929682      -0.09795586       0.34438789      -0.11049968      -0.08146150      -0.00014019       0.02279744
H       -0.60026918       0.96240693      -0.91586911      -0.01704502      -0.24621251      -0.14217714       0.06707113      -0.01864530       0.02953745
H        3.04582790      -0.24175518      -0.06744449      -0.58942918       0.01516864      -0.11185409       0.29778020       0.03918715      -0.04008032
7
Lattice="13.0 0.0 0.0 0.0 9.0 0.0 0.0 0.0 9.0" Properties=species:S:1:pos:R:3:momenta:R:3:forces:R:3 EPS_SCF=1e-06 energy=-670.2049288658521 units=gap_units Integrated_spin_density=1.924e-05 opt_dir=/home/tks32/dft_pbe/apr_8_opt_fragments_subset/singlepoint_5_CH3OH time=10.0 free_energy=-670.2049288658521 cutoff=8.0 nneightol=1.2 pbc="T T T"
C       -0.74750838       0.31358431      -0.03594660       0.50167626       0.24066968       0.47538861       0.00772607      -0.02915075       0.07984156
O       -0.09465982      -0.94402808      -0.24761153       0.70939575      -0.11562789      -1.04656275      -0.30939997      -0.03229563       0.02184851
H       -1.82854358       0.11218641       0.04649774      -0.27333333      -0.16629365       0.24585579      -0.06835590       0.04105046      -0.07706512
H        0.67355921      -1.08156943       0.34063230      -0.23330862      -0.07209215       0.68984926       0.10006588       0.01185587       0.00099076
H       -0.45790189       0.87878105       0.87995772      -0.09795586       0.34438789      -0.11049968      -0.06871409      -0.01849811      -0.00024247