7
Lattice="13.0 0.0 0.0 0.0 9.0 0.0 0.0 0.0 9.0" Properties=species:S:1:pos:R:3:momenta:R:3:forces:R:3:map_shift:I:3:n_neighb:I:1:force:R:3:local_energy:R:1:gap_var:R:1:gap_variance_gradient:R:3 EPS_SCF=1e-06 energy=-671.9986154866576 units=gap_units Integrated_spin_density=1.924e-05 opt_dir=/home/tks32/dft_pbe/apr_8_opt_fragments_subset/singlepoint_5_CH3OH time=0.0 free_energy=-671.9986154866576 cutoff=8.0 nneightol=1.2 pbc="T T T"
C       -0.76147224       0.30181402       0.00747748       5.45576389      -0.78295391      -0.42330267      -0.14458383       0.01193851       0.04747192        0        0        0       12      -0.12734797      -0.05430433      -0.00006393    -155.22920908       0.00318012       0.00225068      -0.00114359      -0.00004332
O       -0.27796468      -1.04615849       0.00651727       6.08037964       1.18098515      -0.51859695      -0.01482319       0.12235362      -0.12274077        0        0        0       12      -0.37016421       0.17051024       0.01590349    -437.70340651       0.00458390       0.00606563       0.00258297      -0.00068999
H       -1.86702023       0.23246978       0.03390353      -0.04505419       0.01870235       0.27550326       0.08909336       0.04857722      -0.01011959        0        0        0       13      -0.14037652       0.17003809       0.00340451     -16.06612243       0.00326814       0.00082746      -0.00048944      -0.00003205
H        0.70236082      -1.09839486      -0.05208807       0.87220168      -0.41663278       0.71450882      -0.01197542      -0.07393272       0.09575894        0        0        0       12       0.59833115      -0.25716187      -0.03308860     -15.23775568       0.00669922      -0.00504971       0.00081005       0.00097226
H       -0.44721042       0.88038693       0.90582848       0.63788730      -0.13487010      -0.04519662      -0.05893213       0.02076518      -0.01388699        0        0        0       15       0.07899642      -0.06650133       0.08263587     -15.89439689       0.00321213       0.00184937      -0.00118747      -0.00152032
H       -0.48271516       0.86469893      -0.91149255       0.06259361       0.13476928      -0.00291584       0.00954942      -0.02461128       0.03157600        0        0        0       15       0.06889960      -0.07351051      -0.07606437     -15.89075025       0.00316167       0.00095124      -0.00084913       0.00133826
H        3.13402191      -0.13481629       0.00985387      -0.36793659       0.00000000       0.00000000       0.13167179      -0.10509053      -0.02805951        0        0        0        7      -0.10833847       0.11092971       0.00727303     -14.04714685       0.00406496      -0.00689467       0.00027662      -0.00002483
7
Lattice="13.0 0.0 0.0 0.0 9.0 0.0 0.0 0.0 9.0" Properties=species:S:1:pos:R:3:momenta:R:3:forces:R:3:map_shift:I:3:n_neighb:I:1:force:R:3:local_energy:R:1:gap_var:R:1:gap_variance_gradient:R:3 EPS_SCF=1e-06 energy=-671.9986154866576 units=gap_units Integrated_spin_density=1.924e-05 opt_dir=/home/tks32/dft_pbe/apr_8_opt_fragments_subset/singlepoint_5_CH3OH time=5.0 free_energy=-671.9986154866576 cutoff=8.0 nneightol=1.2 pbc="T T T"
C       -0.74478727       0.30472728      -0.00677812      -0.01055651      -0.24397781       0.15214617      -0.14458383       0.01193851       0.04747192        0        0        0       12      -1.16175550      -0.13614999       0.37893005    -155.19929912       0.00387706       0.00849876      -0.00263980      -0.00045674
O       -0.23268320      -1.03213031      -0.04366375       0.88302482       0.70608064      -0.59884458      -0.01482319       0.12235362      -0.12274077        0        0        0       12      -2.76042753      -0.18017237      -0.88966545    -437.55625005       0.00450150       0.01418448       0.00072470       0.00921274
H       -1.84325218       0.19095762      -0.00659867       0.36769236       0.03634687       0.09026527       0.08909336       0.04857722      -0.01011959        0        0        0       13       1.38873511       0.27790587      -0.16545902     -16.05231622       0.00321275      -0.00176193      -0.00022905      -0.00000987
H        0.74091890      -1.08549066       0.10920225      -0.47288385      -0.30471476       0.48093729      -0.01197542      -0.07393272       0.09575894        0        0        0       11       2.71699128      -0.17892332       0.92674302     -15.24194573       0.00605592      -0.00353536       0.00407963      -0.01165832
H       -0.48588795       0.87897406       0.91283797       0.14724989      -0.04209193      -0.05149219      -0.05893213       0.02076518      -0.01388699        0        0        0       14       0.05561118      -0.07942305      -0.01576141     -15.85554364       0.00387094       0.00044663       0.00090069      -0.00017290
H       -0.49343299       0.90838259      -0.90892357      -0.07521088      -0.18029304      -0.03109141       0.00954942      -0.02461128       0.03157600        0        0        0       15       0.21821349       0.05269227      -0.19154604     -15.98847608       0.00378392       0.00465115      -0.00191404       0.00171006
H        3.05912470      -0.16542059      -0.05607612      -0.83931582       0.02865003      -0.04192054       0.13167179      -0.10509053      -0.02805951        0        0        0        7      -0.45736803       0.24407059      -0.04324116     -14.22747244       0.00683915      -0.02248373      -0.00092215       0.00137503
7
Lattice="13.0 0.0 0.0 0.0 9.0 0.0 0.0 0.0 9.0" Properties=species:S:1:pos:R:3:momenta:R:3:forces:R:3:map_shift:I:3:n_neighb:I:1:force:R:3:local_energy:R:1:gap_var:R:1:gap_variance_gradient:R:3 EPS_SCF=1e-06 energy=-671.9986154866576 units=gap_units Integrated_spin_density=1.924e-05 opt_dir=/home/tks32/dft_pbe/apr_8_opt_fragments_subset/singlepoint_5_CH3OH time=10.0 free_energy=-671.9986154866576 cutoff=8.0 nneightol=1.2 pbc="T T T"
C       -0.76552363       0.29362629      -0.01399577       0.50167626       0.24066968       0.47538861      -0.14458383       0.01193851       0.04747192        0        0        0       12      -0.03127817       0.14941396       0.44763431    -155.08389109       0.00395515      -0.00222938      -0.00103817      -0.00051929
O       -0.25805305      -1.04595937      -0.04678248       0.70939575      -0.11562789      -1.04656275      -0.01482319       0.12235362      -0.12274077        0        0        0       12      -1.18292488       0.13533959      -0.68577690    -437.48246292       0.00449732       0.00519782      -0.00047376       0.00843024
H       -1.87201648       0.23936293      -0.04429246      -0.27333333      -0.16629365       0.24585579       0.08909336       0.04857722      -0.01011959        0        0        0       13      -0.01781844      -0.06710367      -0.03884616     -16.01419957       0.00315791       0.00141362       0.00060816      -0.00021187
H        0.69832278      -1.07383162       0.18140688      -0.23330862      -0.07209215       0.68984926      -0.01197542      -0.07393272       0.09575894        0        0        0       13       0.92821832      -0.24426213       0.72546820     -15.23405956       0.00541563      -0.00061755       0.00416605      -0.01090144
H       -0.48813542       0.82254718       0.92256742      -0.09795586       0.34438789      -0.11049968      -0.05893213       0.02076518      -0.01388699        0        0        0       14      -0.33102841      -0.08954072      -0.19807510     -15.91222310       0.00393269      -0.00483095       0.00242732      -0.00017042
H       -0.45714406       0.89652059      -0.89832774      -0.01704502      -0.24621251      -0.14217714       0.00954942      -0.02461128       0.03157600        0        0        0       14      -0.01013923       0.16217521      -0.19985055     -16.09358799       0.00385701       0.00274091      -0.00267294       0.00314995
H        3.14254985      -0.13226600      -0.10057585      -0.58942918       0.01516864      -0.11185409       0.13167179      -0.10509053      -0.02805951        0        0        0        8       0.64497081      -0.04602224      -0.05055379     -14.30919830       0.00927899      -0.00167447      -0.00301665       0.00022283
7
Lattice="13.0 0.0 0.0 0.0 9.0 0.0 0.0 0.0 9.0" Properties=species:S:1:pos:R:3:momenta:R:3:forces:R:3:map_shift:I:3:n_neighb:I:1:force:R:3:local_energy:R:1:gap_var:R:1:gap_variance_gradient:R:3 EPS_SCF=1e-06 energy=-671.9986154866576 units=gap_units Integrated_spin_density=1.924e-05 opt_dir=/home/tks32/dft_pbe/apr_8_opt_fragments_subset/singlepoint_5_CH3OH time=15.0 free_energy=-671.9986154866576 cutoff=8.0 nneightol=1.2 pbc="T T T"
C       -0.65398059       0.39920712      -0.01518176      -0.27182460       0.42681446       0.54816654      -0.14458383       0.01193851       0.04747192        0        0        0       12      -1.73903337      -0.66278134       0.42613221    -155.09690735       0.00388753      -0.00036174      -0.00024073      -0.00082187
O        0.66706955      -0.23955425      -0.01944547       1.49731807      -0.81646626      -0.44068703      -0.01482319       0.12235362      -0.12274077        0        0        0       12       0.18657404       0.69042716      -0.19072885    -437.47542507       0.00434468       0.00522130      -0.00248888       0.00709962
H       -1.47547084      -0.31942373       0.03426725       0.06078057       0.06391883       0.03492908       0.08909336       0.04857722      -0.01011959        0        0        0       13       1.44547024       0.40564914      -0.06921599     -15.98089187       0.00309958      -0.00095566       0.00064199       0.00006315
H        0.61660577      -1.16941108       0.27084101      -0.61128966       0.12496229       0.17247520      -0.01197542      -0.07393272       0.09575894        0        0        0       13       0.09568989      -0.33912535       0.51683222     -15.30160146       0.00509184       0.00139704       0.00542370      -0.00912807
H       -0.76096386       1.08046608       0.84842136      -0.04710026       0.30241912      -0.27294023      -0.05893213       0.02076518      -0.01388699        0        0        0       14      -0.08775574      -0.26322262      -0.06184311     -15.92002834       0.00392117      -0.00227375       0.00153644      -0.00036266
H       -0.81099929       1.00362689      -0.92821299      -0.25533303       0.00301973       0.11413787       0.00954942      -0.02461128       0.03157600        0        0        0       14      -0.11756534       0.34524395      -0.52012451     -16.06060001       0.00384133      -0.00002634      -0.00130786       0.00233992
H        2.41773926      -0.75491101      -0.19068941      -0.37255110      -0.10466817      -0.15608142       0.13167179      -0.10509053      -0.02805951        0        0        0        8       0.21662030      -0.17619095      -0.10105198     -14.10836347       0.00660119      -0.00300085      -0.00356466       0.00080990
7
Lattice="13.0 0.0 0.0 0.0 9.0 0.0 0.0 0.0 9.0" Properties=species:S:1:pos:R:3:momenta:R:3:forces:R:3:map_shift:I:3:n_neighb:I:1:force:R:3:local_energy:R:1:gap_var:R:1:gap_variance_gradient:R:3 EPS_SCF=1e-06 energy=-671.9986154866576 units=gap_units Integrated_spin_density=1.924e-05 opt_dir=/home/tks32/dft_pbe/apr_8_opt_fragments_subset/singlepoint_5_CH3OH time=20.0 free_energy=-671.9986154866576 cutoff=8.0 nneightol=1.2 pbc="T T T"
C       -0.64098014       0.40127143      -0.02228722      -0.84496285       0.44868463       0.31246629      -0.14458383       0.01193851       0.04747192        0        0        0       12      -0.14282698      -1.03096183       0.08819695    -154.98593683       0.00396476       0.00047579       0.00053637      -0.00074308
O        0.52757411      -0.51652805      -0.22682601       1.73957303      -0.15782599      -0.24752712      -0.01482319       0.12235362      -0.12274077        0        0        0       12       0.34218747       1.83489667      -0.06089189    -437.39533605       0.00501093       0.00667347      -0.00550133       0.00749220
H       -1.58387269      -0.17586380      -0.03501094       0.11398426       0.10914751       0.14028638       0.08909336       0.04857722      -0.01011959        0        0        0       12       0.15383175       0.17448469       0.00079987     -15.92629213       0.00333637       0.00511351       0.00094465       0.00019465
H        0.63050164      -1.22020404       0.45139713      -0.46444676      -0.31464001       0.30840429      -0.01197542      -0.07393272       0.09575894        0        0        0       13       0.05873815      -0.55225072       0.68517823     -15.53078253       0.00497283       0.00134042       0.00713233      -0.00852500
H       -0.55474274       1.00795060       0.90160950       0.15136123      -0.00529192      -0.24886180      -0.05893213       0.02076518      -0.01388699        0        0        0       15       0.04335743      -0.30643968      -0.09809255     -16.00744018       0.00405433      -0.00116312      -0.00013038      -0.00175774
H       -0.62034164       1.08634957      -0.89135250      -0.23218431       0.12557525      -0.07191341       0.00954942      -0.02461128       0.03157600        0        0        0       15       0.04480666       0.20686709      -0.40701503     -16.10694575       0.00392300       0.00203261      -0.00143767       0.00346192
H        2.24186147      -0.58297571      -0.17752996      -0.46332459      -0.20564946      -0.19285463       0.13167179      -0.10509053      -0.02805951        0        0        0        9      -0.50009448      -0.32659623      -0.20817559     -14.25079194       0.00796497      -0.01447267      -0.00154397      -0.00012294
7
Lattice="13.0 0.0 0.0 0.0 9.0 0.0 0.0 0.0 9.0" Properties=species:S:1:pos:R:3:momenta:R:3:forces:R:3:map_shift:I:3:n_neighb:I:1:force:R:3:local_energy:R:1:gap_var:R:1:gap_variance_gradient:R:3 EPS_SCF=1e-06 energy=-671.9986154866576 units=gap_units Integrated_spin_density=1.924e-05 opt_dir=/home/tks32/dft_pbe/apr_8_opt_fragments_subset/singlepoint_5_CH3OH time=25.0 free_energy=-671.9986154866576 cutoff=8.0 nneightol=1.2 pbc="T T T"
C       -0.63955984       0.40238421      -0.01985063      -0.68255313       0.28152223      -0.40670973      -0.14458383       0.01193851       0.04747192        0        0        0       12       0.23140090      -1.89939984       0.09068123    -154.87373975       0.00404319      -0.00244023       0.00318448      -0.00061905
O        0.54886944      -0.47748791      -0.20822015       1.75027887       0.75902941       0.77511856      -0.01482319       0.12235362      -0.12274077        0        0        0       12       0.13718159       3.99687512      -1.83741984    -436.97922355       0.00499357       0.00341899      -0.00926125       0.01046510
H       -1.56781411      -0.18956698      -0.06750660      -0.19203621      -0.01410401       0.32048922       0.08909336       0.04857722      -0.01011959        0        0        0       11       0.57985464       0.20160317      -0.16073288     -15.89846923       0.00391490       0.00351593       0.00078977      -0.00040925
H        0.61120433      -1.22482287       0.42167375      -0.36335115      -0.36990115      -0.41517849      -0.01197542      -0.07393272       0.09575894        0        0        0       14      -0.28402764      -1.98276222       2.16792128     -15.70459684       0.00529048       0.00238512       0.00895120      -0.00914829
H       -0.60351835       0.99507936       0.91849848       0.39290518      -0.13081238      -0.00656175      -0.05893213       0.02076518      -0.01388699        0        0        0       15       0.09683749       0.06964587       0.42543862     -16.01814453       0.00410739      -0.00240626      -0.00056232      -0.00222284
H       -0.62585487       1.10925881      -0.87120310      -0.06231355      -0.07451264      -0.03579864       0.00954942      -0.02461128       0.03157600        0        0        0       15       0.14019346       0.06235077      -0.50843057     -16.14530291       0.00408556       0.00023328      -0.00111838       0.00322476
H        2.27667340      -0.61484463      -0.17339174      -0.84293000      -0.45122147      -0.23135917       0.13167179      -0.10509053      -0.02805951        0        0        0        9      -0.90144044      -0.44831287      -0.17745784     -14.82474536       0.00843816      -0.00470683      -0.00198349      -0.00129044
7
Lattice="13.0 0.0 0.0 0.0 9.0 0.0 0.0 0.0 9.0" Properties=species:S:1:pos:R:3:momenta:R:3:forces:R:3:map_shift:I:3:n_neighb:I:1:force:R:3:local_energy:R:1:gap_var:R:1:gap_variance_gradient:R:3 EPS_SCF=1e-06 energy=-671.9986154866576 units=gap_units Integrated_spin_density=1.924e-05 opt_dir=/home/tks32/dft_pbe/apr_8_opt_fragments_subset/singlepoint_5_CH3OH time=30.0 free_energy=-671.9986154866576 cutoff=8.0 nneightol=1.2 pbc="T T T"
C       -0.64734389       0.39323674      -0.02439638      -0.54387360      -0.37898307      -0.66115888      -0.14458383       0.01193851       0.04747192        0        0        0       12       0.03728736      -1.78891396       0.29068614    -154.82569251       0.00418260      -0.00594455       0.00406006      -0.00054332
O        0.56099946      -0.45700652      -0.23457670       1.50769252       2.10727122       1.00646372      -0.01482319       0.12235362      -0.12274077        0        0        0       12       0.40398418       5.32980992      -2.00536170    -436.50205788       0.00657527       0.01608431      -0.00521005       0.00842903
H       -1.56108175      -0.21443500      -0.10784128       0.42277758      -0.01254788       0.07640857       0.08909336       0.04857722      -0.01011959        0        0        0       11       0.68626671       0.15073499      -0.27940328     -15.89930476       0.00428741       0.00525753      -0.00003651      -0.00047387
H        0.62210631      -1.22166605       0.37943439      -0.32984799      -0.44825288      -0.21508275      -0.01197542      -0.07393272       0.09575894        0        0        0       13      -0.90700859      -3.63966233       1.78254984     -15.71224834       0.00542394       0.00223911       0.00885154      -0.00537484
H       -0.61676539       0.94603425       0.93774088      -0.05091383      -0.35899509       0.04222776      -0.05893213       0.02076518      -0.01388699        0        0        0       15       0.08428265       0.35659429       0.69330198     -15.99772790       0.00409486      -0.00197110      -0.00075665      -0.00293927
H       -0.65349352       1.13615664      -0.84603493      -0.07858736      -0.16608572      -0.05574015       0.00954942      -0.02461128       0.03157600        0        0        0       16       0.16697627      -0.02860701      -0.45308910     -16.18930447       0.00421078      -0.00216001      -0.00049363       0.00245662
H        2.29557877      -0.58232006      -0.10432598      -0.92724732      -0.74240657      -0.19311826       0.13167179      -0.10509053      -0.02805951        0        0        0        9      -0.47178859      -0.37995590      -0.02868388     -15.52508374       0.01088038      -0.01350529      -0.00641476      -0.00155436
7
Lattice="13.0 0.0 0.0 0.0 9.0 0.0 0.0 0.0 9.0" Properties=species:S:1:pos:R:3:momenta:R:3:forces:R:3:map_shift:I:3:n_neighb:I:1:force:R:3:local_energy:R:1:gap_var:R:1:gap_variance_gradient:R:3 EPS_SCF=1e-06 energy=-671.9986154866576 units=gap_units Integrated_spin_density=1.924e-05 opt_dir=/home/tks32/dft_pbe/apr_8_opt_fragments_subset/singlepoint_5_CH3OH time=35.0 free_energy=-671.9986154866576 cutoff=8.0 nneightol=1.2 pbc="T T T"
C       -0.65277970       0.41157281       0.00681280       0.16432131       0.01306400      -0.39296646      -0.14458383       0.01193851       0.04747192        0        0        0       13      -0.66386431      -1.38458700       0.17454759    -154.89732105       0.00432389      -0.00697431       0.00303603       0.00102171
O        0.67568422      -0.21869153       0.08472106       1.06591612       0.74521249       1.07881961      -0.01482319       0.12235362      -0.12274077        0        0        0       12       0.11141915       3.57648005      -0.19602369    -436.49203662       0.00771450       0.01878552      -0.00111763      -0.00575776
H       -1.47411824      -0.31010779      -0.12203516      -0.33400303      -0.00688212       0.22199701       0.08909336       0.04857722      -0.01011959        0        0        0       12       1.00968085       0.43966044      -0.19622783     -15.86214598       0.00439218       0.00693200      -0.00010381       0.00093409
H        0.59470286      -1.19150856       0.09942847      -0.00313487      -0.02209186      -0.69494848      -0.01197542      -0.07393272       0.09575894        0        0        0       12      -0.46447037      -2.56558183      -0.07785689     -15.66906759       0.00530660       0.00461334       0.00802404       0.00041988
H       -0.85348395       0.98697542       0.92332749      -0.25882815       0.32308538       0.06201105      -0.05893213       0.02076518      -0.01388699        0        0        0       15      -0.01704464       0.38104983       0.51601498     -16.00327162       0.00404646      -0.00324692      -0.00029947      -0.00202673
H       -0.71349768       1.11041782      -0.84412965      -0.18397695      -0.00888003       0.03510600       0.00954942      -0.02461128       0.03157600        0        0        0       15       0.11970983      -0.14138933      -0.22237333     -16.18644744       0.00416338      -0.00381576       0.00009034       0.00180398
H        2.42349249      -0.78865819      -0.14812501      -0.45029443      -1.04350786      -0.31001873       0.13167179      -0.10509053      -0.02805951        0        0        0        9      -0.09543050      -0.30563217       0.00191918     -15.67279510       0.01214297      -0.01629386      -0.00962950       0.00360484
7
Lattice="13.0 0.0 0.0 0.0 9.0 0.0 0.0 0.0 9.0" Properties=species:S:1:pos:R:3:momenta:R:3:forces:R:3:map_shift:I:3:n_neighb:I:1:force:R:3:local_energy:R:1:gap_var:R:1:gap_variance_gradient:R:3 EPS_SCF=1e-06 energy=-671.9986154866576 units=gap_units Integrated_spin_density=1.924e-05 opt_dir=/home/tks32/dft_pbe/apr_8_opt_fragments_subset/singlepoint_5_CH3OH time=40.0 free_energy=-671.9986154866576 cutoff=8.0 nneightol=1.2 pbc="T T T"
C       -0.64975418       0.38056028       0.02216500      -0.67696378       0.36409795       0.62274049      -0.14458383       0.01193851       0.04747192        0        0        0       13       0.10695572      -1.59786553      -0.29464439    -155.00740778       0.00430078       0.00038282       0.00118859       0.00235982
O        0.61389282      -0.36079364       0.23945686       0.90418045       0.76078255       1.27255782      -0.01482319       0.12235362      -0.12274077        0        0        0       11      -0.20529511       3.03980521       0.69870080    -436.86996694       0.00670917       0.02514339      -0.00306403      -0.01519692
H       -1.52765149      -0.27101909      -0.10270747       0.37421312       0.26608567      -0.47925791       0.08909336       0.04857722      -0.01011959        0        0        0       12       1.03316669       0.57474832       0.06080591     -15.82314497       0.00412444       0.01012923       0.00034445       0.00092056
H        0.60350940      -1.26745981      -0.13295797      -0.06687353      -0.36615984      -0.65031560      -0.01197542      -0.07393272       0.09575894        0        0        0       13      -0.05099503      -1.73401291      -0.95742242     -15.56420054       0.00534915       0.00813819       0.00839682       0.00455644
H       -0.84879923       0.99320589       0.92044005      -0.40796507       0.39606037      -0.30035418      -0.05893213       0.02076518      -0.01388699        0        0        0       15      -0.03230276       0.11251695       0.56521610     -16.04928784       0.00413275      -0.00304776      -0.00103654      -0.00193297
H       -0.54872840       1.05805046      -0.85041921      -0.13791452      -0.09127620       0.10677186       0.00954942      -0.02461128       0.03157600        0        0        0       15       0.11016243      -0.17193787      -0.17006569     -16.10007958       0.00402898      -0.00744103       0.00208470       0.00111546
H        2.35753109      -0.53254409      -0.09597726       0.01132333      -1.32959050      -0.57214248       0.13167179      -0.10509053      -0.02805951        0        0        0        9      -0.96169194      -0.22325417       0.09740969     -15.45804618       0.01169051      -0.03330483      -0.00791399       0.00817761
7
Lattice="13.0 0.0 0.0 0.0 9.0 0.0 0.0 0.0 9.0" Properties=species:S:1:pos:R:3:momenta:R:3:forces:R:3:map_shift:I:3:n_neighb:I:1:force:R:3:local_energy:R:1:gap_var:R:1:gap_variance_gradient:R:3 EPS_SCF=1e-06 energy=-671.9986154866576 units=gap_units Integrated_spin_density=1.924e-05 opt_dir=/home/tks32/dft_pbe/apr_8_opt_fragments_subset/singlepoint_5_CH3OH time=45.0 free_energy=-671.9986154866576 cutoff=8.0 nneightol=1.2 pbc="T T T"
C       -0.68153068       0.37470069       0.02833579       0.36436470       0.37580701      -0.17426426      -0.14458383       0.01193851       0.04747192        0        0        0       13       1.18984886      -1.76099360      -0.54624291    -155.11539752       0.00392429      -0.00047842       0.00204964       0.00147688
O        0.61291287      -0.29642419       0.29193572       0.36784383       0.41002685       1.22243653      -0.01482319       0.12235362      -0.12274077        0        0        0       12      -1.10452813       1.80586593       0.14859749    -437.64843285       0.00555413       0.00142541      -0.00563834      -0.00758708
H       -1.49808695      -0.34534350      -0.13129104      -0.49698221      -0.33041504       0.35337882       0.08909336       0.04857722      -0.01011959        0        0        0       10       0.72411556       0.54693273       0.18408866     -15.83203309       0.00368369       0.00957649      -0.00075572      -0.00007822
H        0.75254962      -1.08635898      -0.27171259       0.01811534       0.50937054      -0.63342862      -0.01197542      -0.07393272       0.09575894        0        0        0       12       0.34061329      -0.74604478      -0.65794105     -15.35670253       0.00578716       0.01383611       0.00841284       0.00732153
H       -0.93681891       0.94481057       0.93517789      -0.04302756       0.10222254      -0.28752014      -0.05893213       0.02076518      -0.01388699        0        0        0       15       0.25823597       0.00654775       0.62136868     -16.08225343       0.00397455       0.00553308      -0.00309711      -0.00323107
H       -0.60556540       1.07533325      -0.82642380      -0.05550047      -0.14006379      -0.08382500       0.00954942      -0.02461128       0.03157600        0        0        0       14      -0.26041679       0.07802850      -0.08044545     -15.96143720       0.00405954      -0.00538039       0.00159406       0.00044369
H        2.35653944      -0.66671785      -0.02602197      -0.15481364      -0.92694810      -0.39677734       0.13167179      -0.10509053      -0.02805951        0        0        0        8      -1.14786876       0.06966347       0.33057458     -14.62305819       0.00817421      -0.02451228      -0.00256536       0.00165426
7
Lattice="13.0 0.0 0.0 0.0 9.0 0.0 0.0 0.0 9.0" Properties=species:S:1:pos:R:3:momenta:R:3:forces:R:3:map_shift:I:3:n_neighb:I:1:force:R:3:local_energy:R:1:gap_var:R:1:gap_variance_gradient:R:3 EPS_SCF=1e-06 energy=-671.9986154866576 units=gap_units Integrated_spin_density=1.924e-05 opt_dir=/home/tks32/dft_pbe/apr_8_opt_fragments_subset/singlepoint_5_CH3OH time=50.0 free_energy=-671.9986154866576 cutoff=8.0 nneightol=1.2 pbc="T T T"
C       -0.70820372       0.34645429       0.03452609      -0.14613626      -0.31730614      -0.40691784      -0.14458383       0.01193851       0.04747192        0        0        0       13       0.84464874      -1.45128869      -0.41075383    -155.12863515       0.00393088      -0.00441070       0.00055419       0.00062613
O        0.62126036      -0.23458269       0.30348446      -0.62254882       0.90825150       1.32489774      -0.01482319       0.12235362      -0.12274077        0        0        0       11      -1.09836528       0.96284344      -0.75894695    -438.12430794       0.00577409       0.00373094      -0.00493091      -0.01046383
H       -1.47534122      -0.42068687      -0.14358233       0.52993614      -0.09614964      -0.07934833       0.08909336       0.04857722      -0.01011959        0        0        0       10       0.52171849       0.48738386       0.19503302     -15.90883480       0.00322078       0.00656711      -0.00041840      -0.00160571
H        0.91306159      -0.83239276      -0.41424731       0.09936693       0.41526985      -0.58362288      -0.01197542      -0.07393272       0.09575894        0        0        0       11       0.39991594      -0.31116909      -0.00033906     -15.15651611       0.00842974       0.01397107       0.01087505       0.01859835
H       -0.98060591       0.88316686       0.94476137       0.33147616      -0.09588559      -0.01850209      -0.05893213       0.02076518      -0.01388699        0        0        0       15       0.19502120       0.14567747       0.54268415     -16.10098923       0.00332217      -0.00087608      -0.00007349      -0.00141394
H       -0.73932245       1.07482189      -0.79443889       0.11321327      -0.19007716      -0.05502875       0.00954942      -0.02461128       0.03157600        0        0        0       14      -0.26024953       0.06052172       0.13015918     -15.83308820       0.00402541      -0.00161468      -0.00191369       0.00033042