7
Lattice="13.0 0.0 0.0 0.0 9.0 0.0 0.0 0.0 9.0" Properties=species:S:1:pos:R:3:momenta:R:3:forces:R:3 EPS_SCF=1e-06 energy=-670.4427461337644 units=gap_units Integrated_spin_density=1.924e-05 opt_dir=/home/tks32/dft_pbe/apr_8_opt_fragments_subset/singlepoint_5_CH3OH time=50.0 free_energy=-670.4427461337644 cutoff=8.0 nneightol=1.2 pbc="T T T"
C       -0.77899700       0.35789247       0.07192968      -0.14613626      -0.31730614      -0.40691784       0.84464874      -1.45128869      -0.41075383
O        0.51761051      -0.36994292       0.48054885      -0.62254882       0.90825150       1.32489774      -1.09836528       0.96284344      -0.75894695
H       -1.57246839      -0.39519572      -0.17071975       0.52993614      -0.09614964      -0.07934833       0.52171849       0.48738386       0.19503302
H        0.87824914      -0.71705461      -0.35857442       0.09936693       0.41526985      -0.58362288       0.39991594      -0.31116909      -0.00033906
H       -1.13576573       0.98210048       0.88132962       0.33147616      -0.09588559      -0.01850209       0.19502120       0.14567747       0.54268415
H       -0.63885076       1.03212375      -0.79404371       0.11321327      -0.19007716      -0.05502875      -0.26024953       0.06052172       0.13015918
H        2.73022223      -0.88992345      -0.11047027      -0.30530741      -0.62410282      -0.18147784      -0.60268955       0.10603128       0.30216349
7
Lattice="13.0 0.0 0.0 0.0 9.0 0.0 0.0 0.0 9.0" Properties=species:S:1:pos:R:3:momenta:R:3:forces:R:3 EPS_SCF=1e-06 energy=-670.500229440798 units=gap_units Integrated_spin_density=1.924e-05 opt_dir=/home/tks32/dft_pbe/apr_8_opt_fragments_subset/singlepoint_5_CH3OH time=50.0 free_energy=-670.500229440798 cutoff=8.0 nneightol=1.2 pbc="T T T"
C       -0.77055051       0.34337958       0.06782214      -0.14613626      -0.31730614      -0.40691784       0.57218974      -0.43303989       0.04387583
O        0.50662686      -0.36031449       0.47295938      -0.62254882       0.90825150       1.32489774      -0.65542013       0.65835375      -0.79792307
H       -1.56725121      -0.39032188      -0.16876942       0.52993614      -0.09614964      -0.07934833       0.26777879       0.16167009       0.09656593
H        0.88224830      -0.72016630      -0.35857781       0.09936693       0.41526985      -0.58362288       0.25975468      -0.24388815       0.10581386
H       -1.13381552       0.98355725       0.88675646       0.33147616      -0.09588559      -0.01850209       0.37041560      -0.22936492       0.09334220
H       -0.64145326       1.03272897      -0.79274212       0.11321327      -0.19007716      -0.05502875      -0.24413195      -0.01971608       0.14049528
H        2.72419533      -0.88886314      -0.10744864      -0.30530741      -0.62410282      -0.18147784      -0.57058673       0.10598519       0.31782997
7
Lattice="13.0 0.0 0.0 0.0 9.0 0.0 0.0 0.0 9.0" Properties=species:S:1:pos:R:3:momenta:R:3:forces:R:3 EPS_SCF=1e-06 energy=-670.5409429168188 units=gap_units Integrated_spin_density=1.924e-05 opt_dir=/home/tks32/dft_pbe/apr_8_opt_fragments_subset/singlepoint_5_CH3OH time=50.0 free_energy=-670.5409429168188 cutoff=8.0 nneightol=1.2 pbc="T T T"
C       -0.75632417       0.32530448       0.06463333      -0.14613626      -0.31730614      -0.40691784       0.05043332       0.77693839       0.32353620
O        0.48915347      -0.34402683       0.45689093      -0.62254882       0.90825150       1.32489774       0.15015191       0.17811590      -0.62976621
H       -1.55945554      -0.38406370      -0.16589613       0.52993614      -0.09614964      -0.07934833      -0.03698816      -0.22221878      -0.00863589
H        0.88885484      -0.72579043      -0.35735581       0.09936693       0.41526985      -0.58362288       0.06245643      -0.17742520       0.12472132
H       -1.12777185       0.98221289       0.89272128       0.33147616      -0.09588559      -0.01850209       0.51807437      -0.56935385      -0.29428312
H       -0.64662193       1.03304540      -0.78994411       0.11321327      -0.19007716      -0.05502875      -0.22482318      -0.08994963       0.13964395
H        2.71216518      -0.88668182      -0.10104950      -0.30530741      -0.62410282      -0.18147784      -0.51930468       0.10389316       0.34478376
7
Lattice="13.0 0.0 0.0 0.0 9.0 0.0 0.0 0.0 9.0" Properties=species:S:1:pos:R:3:momenta:R:3:forces:R:3 EPS_SCF=1e-06 energy=-670.5560445559911 units=gap_units Integrated_spin_density=1.924e-05 opt_dir=/home/tks32/dft_pbe/apr_8_opt_fragments_subset/singlepoint_5_CH3OH time=50.0 free_energy=-670.5560445559911 cutoff=8.0 nneightol=1.2 pbc="T T T"
C       -0.74287661       0.31895553       0.06589376      -0.14613626      -0.31730614      -0.40691784      -0.68523811       1.18367492       0.04596992
O        0.47534430      -0.32709405       0.43438953      -0.62254882       0.90825150       1.32489774       1.05912127      -0.22507717      -0.08952229
H       -1.55291164      -0.38126825      -0.16342043       0.52993614      -0.09614964      -0.07934833      -0.10074224      -0.31378385      -0.02761482
H        0.89559807      -0.73311721      -0.35466377       0.09936693       0.41526985      -0.58362288      -0.07195688      -0.19279202      -0.10500355
H       -1.11571865       0.97373440       0.89433271       0.33147616      -0.09588559      -0.01850209       0.49530724      -0.54026329      -0.24737088
H       -0.65414390       1.03218186      -0.78564316       0.11321327      -0.19007716      -0.05502875      -0.21935273      -0.01027462       0.05192092
H        2.69470843      -0.88339229      -0.09088865      -0.30530741      -0.62410282      -0.18147784      -0.47713853       0.09851602       0.37162071
7
Lattice="13.0 0.0 0.0 0.0 9.0 0.0 0.0 0.0 9.0" Properties=species:S:1:pos:R:3:momenta:R:3:forces:R:3 EPS_SCF=1e-06 energy=-670.565896998948 units=gap_units Integrated_spin_density=1.924e-05 opt_dir=/home/tks32/dft_pbe/apr_8_opt_fragments_subset/singlepoint_5_CH3OH time=50.0 free_energy=-670.565896998948 cutoff=8.0 nneightol=1.2 pbc="T T T"
C       -0.74458970       0.32191472       0.06600869      -0.14613626      -0.31730614      -0.40691784      -0.55714656       0.95899317       0.01286970
O        0.47799210      -0.32765674       0.43416572      -0.62254882       0.90825150       1.32489774       0.92726198      -0.13814783      -0.07509840
H       -1.55316350      -0.38205271      -0.16348946       0.52993614      -0.09614964      -0.07934833      -0.06810558      -0.26804568      -0.01767349
H        0.89541818      -0.73359919      -0.35492628       0.09936693       0.41526985      -0.58362288      -0.05739009      -0.20453053      -0.14066622
H       -1.11448038       0.97238374       0.89371429       0.33147616      -0.09588559      -0.01850209       0.46180235      -0.47236561      -0.17422799
H       -0.65469228       1.03215618      -0.78551335       0.11321327      -0.19007716      -0.05502875      -0.22348127       0.02515785       0.02525111
H        2.69351558      -0.88314600      -0.08995960      -0.30530741      -0.62410282      -0.18147784      -0.48294082       0.09893863       0.36954530
7
Lattice="13.0 0.0 0.0 0.0 9.0 0.0 0.0 0.0 9.0" Properties=species:S:1:pos:R:3:momenta:R:3:forces:R:3 EPS_SCF=1e-06 energy=-670.580457508621 units=gap_units Integrated_spin_density=1.924e-05 opt_dir=/home/tks32/dft_pbe/apr_8_opt_fragments_subset/singlepoint_5_CH3OH time=50.0 free_energy=-670.580457508621 cutoff=8.0 nneightol=1.2 pbc="T T T"
C       -0.74768586       0.32725347       0.06614803      -0.14613626      -0.31730614      -0.40691784      -0.32953851       0.55372506      -0.05314886
O        0.48296208      -0.32854858       0.43375478      -0.62254882       0.90825150       1.32489774       0.69779420       0.01257123      -0.05283397
H       -1.55358017      -0.38350654      -0.16360090       0.52993614      -0.09614964      -0.07934833      -0.00990430      -0.18560891       0.00031892
H        0.89509617      -0.73460359      -0.35555498       0.09936693       0.41526985      -0.58362288      -0.03170379      -0.22454158      -0.20048546
H       -1.11207757       0.96985031       0.89267163       0.33147616      -0.09588559      -0.01850209       0.39800608      -0.34529773      -0.03598062
H       -0.65580932       1.03220325      -0.78532608       0.11321327      -0.19007716      -0.05502875      -0.23068826       0.08929465      -0.02353003
H        2.69109467      -0.88264831      -0.08809247      -0.30530741      -0.62410282      -0.18147784      -0.49396542       0.09985728       0.36566003
7
Lattice="13.0 0.0 0.0 0.0 9.0 0.0 0.0 0.0 9.0" Properties=species:S:1:pos:R:3:momenta:R:3:forces:R:3 EPS_SCF=1e-06 energy=-670.5933569324351 units=gap_units Integrated_spin_density=1.924e-05 opt_dir=/home/tks32/dft_pbe/apr_8_opt_fragments_subset/singlepoint_5_CH3OH time=50.0 free_energy=-670.5933569324351 cutoff=8.0 nneightol=1.2 pbc="T T T"
C       -0.75153401       0.33384216       0.06610221      -0.14613626      -0.31730614      -0.40691784      -0.05192243       0.05624967      -0.14180487
O        0.48968299      -0.32931074       0.43321473      -0.62254882       0.90825150       1.32489774       0.42830722       0.18614598      -0.03980130
H       -1.55398709      -0.38541292      -0.16370017       0.52993614      -0.09614964      -0.07934833       0.06072385      -0.08468012       0.02234832
H        0.89470422      -0.73623090      -0.35676667       0.09936693       0.41526985      -0.58362288      -0.00232560      -0.24522152      -0.26084214
H       -1.10863286       0.96645784       0.89161732       0.33147616      -0.09588559      -0.01850209       0.31359097      -0.18178989       0.14383155
H       -0.65755780       1.03253327      -0.78523334       0.11321327      -0.19007716      -0.05502875      -0.23896672       0.16774157      -0.08422929
H        2.68732456      -0.88187871      -0.08523408      -0.30530741      -0.62410282      -0.18147784      -0.50940729       0.10155430       0.36049773
7
Lattice="13.0 0.0 0.0 0.0 9.0 0.0 0.0 0.0 9.0" Properties=species:S:1:pos:R:3:momenta:R:3:forces:R:3 EPS_SCF=1e-06 energy=-670.6022498389007 units=gap_units Integrated_spin_density=1.924e-05 opt_dir=/home/tks32/dft_pbe/apr_8_opt_fragments_subset/singlepoint_5_CH3OH time=50.0 free_energy=-670.6022498389007 cutoff=8.0 nneightol=1.2 pbc="T T T"
C       -0.75519248       0.33998338       0.06552803      -0.14613626      -0.31730614      -0.40691784       0.21369642      -0.39864023      -0.22001433
O        0.49734151      -0.32929709       0.43257910      -0.62254882       0.90825150       1.32489774       0.18592953       0.33137547      -0.06463375
H       -1.55412510      -0.38744692      -0.16370552       0.52993614      -0.09614964      -0.07934833       0.12564262       0.00673048       0.04192943
H        0.89434273      -0.73861710      -0.35883751       0.09936693       0.41526985      -0.58362288       0.01918552      -0.25464861      -0.28795023
H       -1.10435406       0.96272141       0.89120901       0.33147616      -0.09588559      -0.01850209       0.22943733      -0.02623124       0.31491851
H       -0.66002954       1.03346071      -0.78546643       0.11321327      -0.19007716      -0.05502875      -0.24543421       0.23676919      -0.13914405
H        2.68201695      -0.88080439      -0.08130667      -0.30530741      -0.62410282      -0.18147784      -0.52845722       0.10464494       0.35489443
7
Lattice="13.0 0.0 0.0 0.0 9.0 0.0 0.0 0.0 9.0" Properties=species:S:1:pos:R:3:momenta:R:3:forces:R:3 EPS_SCF=1e-06 energy=-670.6105384739792 units=gap_units Integrated_spin_density=1.924e-05 opt_dir=/home/tks32/dft_pbe/apr_8_opt_fragments_subset/singlepoint_5_CH3OH time=50.0 free_energy=-670.6105384739792 cutoff=8.0 nneightol=1.2 pbc="T T T"
C       -0.75767692       0.34400285       0.06417920      -0.14613626      -0.31730614      -0.40691784       0.41279505      -0.67843263      -0.24368036
O        0.50493735      -0.32803157       0.43176259      -0.62254882       0.90825150       1.32489774       0.01902304       0.41058464      -0.14475836
H       -1.55377413      -0.38925206      -0.16355176       0.52993614      -0.09614964      -0.07934833       0.16906641       0.06156073       0.05285853
H        0.89408994      -0.74172774      -0.36179028       0.09936693       0.41526985      -0.58362288       0.02432051      -0.24431514      -0.26014329
H       -1.09963543       0.95925941       0.89203252       0.33147616      -0.09588559      -0.01850209       0.17221473       0.06901064       0.41480553
H       -0.66318233       1.03519086      -0.78620245       0.11321327      -0.19007716      -0.05502875      -0.24740085       0.27191883      -0.16886621
H        2.67524151      -0.87944174      -0.07642982      -0.30530741      -0.62410282      -0.18147784      -0.55001889       0.10967293       0.34978416
7
Lattice="13.0 0.0 0.0 0.0 9.0 0.0 0.0 0.0 9.0" Properties=species:S:1:pos:R:3:momenta:R:3:forces:R:3 EPS_SCF=1e-06 energy=-670.622743944605 units=gap_units Integrated_spin_density=1.924e-05 opt_dir=/home/tks32/dft_pbe/apr_8_opt_fragments_subset/singlepoint_5_CH3OH time=50.0 free_energy=-670.622743944605 cutoff=8.0 nneightol=1.2 pbc="T T T"
C       -0.75842476       0.34517458       0.06208676      -0.14613626      -0.31730614      -0.40691784       0.52411762      -0.72948101      -0.19301791
O        0.51184219      -0.32541242       0.43050587      -0.62254882       0.90825150       1.32489774      -0.06380568       0.41854590      -0.27133138
H       -1.55284877      -0.39065476      -0.16322282       0.52993614      -0.09614964      -0.07934833       0.18718747       0.06986127       0.05351044
H        0.89395011      -0.74540809      -0.36538560       0.09936693       0.41526985      -0.58362288       0.01376714      -0.21534085      -0.18328039
H       -1.09476781       0.95639240       0.89426909       0.33147616      -0.09588559      -0.01850209       0.15620391       0.07813512       0.41090593
H       -0.66691173       1.03772827      -0.78747364       0.11321327      -0.19007716      -0.05502875      -0.24345926       0.26131490      -0.16260592
H        2.66716077      -0.87781998      -0.07077967      -0.30530741      -0.62410282      -0.18147784      -0.57401121       0.11696467       0.34581923
7
Lattice="13.0 0.0 0.0 0.0 9.0 0.0 0.0 0.0 9.0" Properties=species:S:1:pos:R:3:momenta:R:3:forces:R:3 EPS_SCF=1e-06 energy=-670.6400795694153 units=gap_units Integrated_spin_density=1.924e-05 opt_dir=/home/tks32/dft_pbe/apr_8_opt_fragments_subset/singlepoint_5_CH3OH time=50.0 free_energy=-670.6400795694153 cutoff=8.0 nneightol=1.2 pbc="T T T"
C       -0.75720608       0.34359616       0.05950689      -0.14613626      -0.31730614      -0.40691784       0.54676614      -0.56800876      -0.08289604
O        0.51782624      -0.32154448       0.42839549      -0.62254882       0.90825150       1.32489774      -0.07482056       0.37000698      -0.41538608
H       -1.55134031      -0.39166503      -0.16273364       0.52993614      -0.09614964      -0.07934833       0.18625158       0.03704897       0.04659884
H        0.89387396      -0.74949765      -0.36928292       0.09936693       0.41526985      -0.58362288      -0.00461415      -0.17664683      -0.08230342
H       -1.08982316       0.95409411       0.89776512       0.33147616      -0.09588559      -0.01850209       0.18017053       0.00631144       0.30919240
H       -0.67114693       1.04095513      -0.78920461       0.11321327      -0.19007716      -0.05502875      -0.23283877       0.20483386      -0.11829704
H        2.65781627      -0.87593823      -0.06444633      -0.30530741      -0.62410282      -0.18147784      -0.60091478       0.12645433       0.34309133
7
Lattice="13.0 0.0 0.0 0.0 9.0 0.0 0.0 0.0 9.0" Properties=species:S:1:pos:R:3:momenta:R:3:forces:R:3 EPS_SCF=1e-06 energy=-670.6630971025982 units=gap_units Integrated_spin_density=1.924e-05 opt_dir=/home/tks32/dft_pbe/apr_8_opt_fragments_subset/singlepoint_5_CH3OH time=50.0 free_energy=-670.6630971025982 cutoff=8.0 nneightol=1.2 pbc="T T T"
C       -0.75355148       0.33949032       0.05658166      -0.14613626      -0.31730614      -0.40691784       0.47385920      -0.22000149       0.05742237
O        0.52341545      -0.31605856       0.42444635      -0.62254882       0.90825150       1.32489774      -0.02366700       0.27926791      -0.54616073
H       -1.54901301      -0.39249932      -0.16204070       0.52993614      -0.09614964      -0.07934833       0.17950023      -0.02671302       0.03704394
H        0.89377791      -0.75433724      -0.37350977       0.09936693       0.41526985      -0.58362288      -0.01900231      -0.13947516       0.01625281
H       -1.08412125       0.95184706       0.90261056       0.33147616      -0.09588559      -0.01850209       0.23863662      -0.13331308       0.12686621
H       -0.67638229       1.04506684      -0.79144794       0.11321327      -0.19007716      -0.05502875      -0.21258174       0.10103649      -0.03237792
H        2.64587467      -0.87350911      -0.05664016      -0.30530741      -0.62410282      -0.18147784      -0.63674501       0.13919835       0.34095333
7
Lattice="13.0 0.0 0.0 0.0 9.0 0.0 0.0 0.0 9.0" Properties=species:S:1:pos:R:3:momenta:R:3:forces:R:3 EPS_SCF=1e-06 energy=-670.6904653036945 units=gap_units Integrated_spin_density=1.924e-05 opt_dir=/home/tks32/dft_pbe/apr_8_opt_fragments_subset/singlepoint_5_CH3OH time=50.0 free_energy=-670.6904653036945 cutoff=8.0 nneightol=1.2 pbc="T T T"
C       -0.74723463       0.33416989       0.05400902      -0.14613626      -0.31730614      -0.40691784       0.29309980       0.20083138       0.15142977
O        0.52882033      -0.30903329       0.41742640      -0.62254882       0.90825150       1.32489774       0.07923616       0.18104660      -0.59344408
H       -1.54568562      -0.39347809      -0.16114326       0.52993614      -0.09614964      -0.07934833       0.19418389      -0.08932219       0.03515971
H        0.89357464      -0.75992693      -0.37760657       0.09936693       0.41526985      -0.58362288      -0.01081480      -0.12860732       0.05697599
H       -1.07711299       0.94886187       0.90813436       0.33147616      -0.09588559      -0.01850209       0.31247990      -0.29100300      -0.06963134
H       -0.68277999       1.04971655      -0.79385544       0.11321327      -0.19007716      -0.05502875      -0.18041287      -0.02844776       0.08061248
H        2.63041826      -0.87031000      -0.04696451      -0.30530741      -0.62410282      -0.18147784      -0.68777209       0.15550228       0.33889748
7
Lattice="13.0 0.0 0.0 0.0 9.0 0.0 0.0 0.0 9.0" Properties=species:S:1:pos:R:3:momenta:R:3:forces:R:3 EPS_SCF=1e-06 energy=-670.7246469416046 units=gap_units Integrated_spin_density=1.924e-05 opt_dir=/home/tks32/dft_pbe/apr_8_opt_fragments_subset/singlepoint_5_CH3OH time=50.0 free_energy=-670.7246469416046 cutoff=8.0 nneightol=1.2 pbc="T T T"
C       -0.73894312       0.33027786       0.05250217      -0.14613626      -0.31730614      -0.40691784       0.03142116       0.49543292       0.12230884
O        0.53473015      -0.30081268       0.40636326      -0.62254882       0.90825150       1.32489774       0.21111878       0.12458406      -0.50105144
H       -1.54104329      -0.39506603      -0.16001004       0.52993614      -0.09614964      -0.07934833       0.25771139      -0.10732242       0.05048172
H        0.89329829      -0.76636106      -0.38127793       0.09936693       0.41526985      -0.58362288       0.03399720      -0.16536726      -0.00332044
H       -1.06800164       0.94389049       0.91313417       0.33147616      -0.09588559      -0.01850209       0.37122344      -0.39114793      -0.18365539
H       -0.69037355       1.05413349      -0.79568746       0.11321327      -0.19007716      -0.05502875      -0.13802141      -0.13270282       0.17968924
H        2.61033317      -0.86606205      -0.03502417      -0.30530741      -0.62410282      -0.18147784      -0.76745055       0.17652345       0.33554747
7
Lattice="13.0 0.0 0.0 0.0 9.0 0.0 0.0 0.0 9.0" Properties=species:S:1:pos:R:3:momenta:R:3:forces:R:3 EPS_SCF=1e-06 energy=-670.7725406737713 units=gap_units Integrated_spin_density=1.924e-05 opt_dir=/home/tks32/dft_pbe/apr_8_opt_fragments_subset/singlepoint_5_CH3OH time=50.0 free_energy=-670.7725406737713 cutoff=8.0 nneightol=1.2 pbc="T T T"
C       -0.73045378       0.33041154       0.05199283      -0.14613626      -0.31730614      -0.40691784      -0.20366317       0.48953794      -0.03904141
O        0.54230449      -0.29164169       0.39132975      -0.62254882       0.90825150       1.32489774       0.33962524       0.13899225      -0.29795614
H       -1.53435178      -0.39750967      -0.15847693       0.52993614      -0.09614964      -0.07934833       0.35685871      -0.06757102       0.07972222
H        0.89329824      -0.77408684      -0.38495137       0.09936693       0.41526985      -0.58362288       0.11016756      -0.23864592      -0.13803520
H       -1.05595485       0.93579493       0.91661772       0.33147616      -0.09588559      -0.01850209       0.38215627      -0.37224036      -0.14138828
H       -0.69903020       1.05744941      -0.79605656       0.11321327      -0.19007716      -0.05502875      -0.09424906      -0.15242183       0.21035621
H        2.58418787      -0.86041768      -0.02045544      -0.30530741      -0.62410282      -0.18147784      -0.89089555       0.20234894       0.32634260
7
Lattice="13.0 0.0 0.0 0.0 9.0 0.0 0.0 0.0 9.0" Properties=species:S:1:pos:R:3:momenta:R:3:forces:R:3 EPS_SCF=1e-06 energy=-670.8408278544651 units=gap_units Integrated_spin_density=1.924e-05 opt_dir=/home/tks32/dft_pbe/apr_8_opt_fragments_subset/singlepoint_5_CH3OH time=50.0 free_energy=-670.8408278544651 cutoff=8.0 nneightol=1.2 pbc="T T T"
C       -0.72397059       0.33525098       0.05111103      -0.14613626      -0.31730614      -0.40691784      -0.25734779       0.16059172      -0.24211627
O        0.55310115      -0.28118634       0.37351679      -0.62254882       0.90825150       1.32489774       0.43210837       0.19414309      -0.12052387
H       -1.52426726      -0.40058911      -0.15618603       0.52993614      -0.09614964      -0.07934833       0.41374926      -0.01526147       0.10207249
H        0.89435737      -0.78406324      -0.38993111       0.09936693       0.41526985      -0.58362288       0.19980384      -0.28818318      -0.22839978
H       -1.04030218       0.92416644       0.91872219       0.33147616      -0.09588559      -0.01850209       0.31395034      -0.22011860       0.06622104
H       -0.70854394       1.05928113      -0.79440115       0.11321327      -0.19007716      -0.05502875      -0.06171470      -0.05087625       0.12633011
H        2.54962544      -0.85285986      -0.00283172      -0.30530741      -0.62410282      -0.18147784      -1.04054933       0.21970469       0.29641628
7
Lattice="13.0 0.0 0.0 0.0 9.0 0.0 0.0 0.0 9.0" Properties=species:S:1:pos:R:3:momenta:R:3:forces:R:3 EPS_SCF=1e-06 energy=-670.9300516963073 units=gap_units Integrated_spin_density=1.924e-05 opt_dir=/home/tks32/dft_pbe/apr_8_opt_fragments_subset/singlepoint_5_CH3OH time=50.0 free_energy=-670.9300516963073 cutoff=8.0 nneightol=1.2 pbc="T T T"
C       -0.72052678       0.34194613       0.04740192      -0.14613626      -0.31730614      -0.40691784      -0.05119968      -0.24492106      -0.29194797
O        0.56890124      -0.26850883       0.35437650      -0.62254882       0.90825150       1.32489774       0.47170550       0.18952357      -0.13110013
H       -1.50939072      -0.40383283      -0.15271203       0.52993614      -0.09614964      -0.07934833       0.30475280      -0.04342944       0.08553474
H        0.89774818      -0.79736375      -0.39755886       0.09936693       0.41526985      -0.58362288       0.23331093      -0.22931096      -0.14170344
H       -1.02105023       0.91001742       0.92159137       0.33147616      -0.09588559      -0.01850209       0.15563338      -0.01102193       0.31852017
H       -0.71873553       1.06050945      -0.79127604       0.11321327      -0.19007716      -0.05502875      -0.04354089       0.14272225      -0.07058090
H        2.50305385      -0.84276759       0.01817714      -0.30530741      -0.62410282      -0.18147784      -1.07066204       0.19643757       0.23127754
7
Lattice="13.0 0.0 0.0 0.0 9.0 0.0 0.0 0.0 9.0" Properties=species:S:1:pos:R:3:momenta:R:3:forces:R:3 EPS_SCF=1e-06 energy=-671.0224923705309 units=gap_units Integrated_spin_density=1.924e-05 opt_dir=/home/tks32/dft_pbe/apr_8_opt_fragments_subset/singlepoint_5_CH3OH time=50.0 free_energy=-671.0224923705309 cutoff=8.0 nneightol=1.2 pbc="T T T"
C       -0.71783676       0.34507025       0.03947777      -0.14613626      -0.31730614      -0.40691784       0.24832849      -0.25478136      -0.02833090
O        0.59147670      -0.25313164       0.33340568      -0.62254882       0.90825150       1.32489774       0.38401167       0.08168184      -0.28535899
H       -1.49015348      -0.40769397      -0.14801161       0.52993614      -0.09614964      -0.07934833      -0.01927827      -0.21404453       0.01588005
H        0.90450593      -0.81393797      -0.40721171       0.09936693       0.41526985      -0.58362288       0.11776183      -0.07214355       0.06346452
H       -0.99961284       0.89575919       0.92906343       0.33147616      -0.09588559      -0.01850209      -0.02346139       0.08069017       0.35027328
H       -0.72952141       1.06380043      -0.78918429       0.11321327      -0.19007716      -0.05502875      -0.01278551       0.27954016      -0.25211511
H        2.44114188      -0.82986629       0.04246072      -0.30530741      -0.62410282      -0.18147784      -0.69457682       0.09905728       0.13618714
7
Lattice="13.0 0.0 0.0 0.0 9.0 0.0 0.0 0.0 9.0" Properties=species:S:1:pos:R:3:momenta:R:3:forces:R:3 EPS_SCF=1e-06 energy=-671.0630405863541 units=gap_units Integrated_spin_density=1.924e-05 opt_dir=/home/tks32/dft_pbe/apr_8_opt_fragments_subset/singlepoint_5_CH3OH time=50.0 free_energy=-671.0630405863541 cutoff=8.0 nneightol=1.2 pbc="T T T"
C       -0.71029702       0.34320375       0.03101958      -0.14613626      -0.31730614      -0.40691784       0.17080336       0.23821307       0.25618475
O        0.62150517      -0.23619586       0.30690714      -0.62254882       0.90825150       1.32489774      -0.01546569       0.07476041      -0.22252148
H       -1.47134188      -0.41573139      -0.14301251       0.52993614      -0.09614964      -0.07934833      -0.27989777      -0.33324343      -0.04472122
H        0.91354965      -0.83188119      -0.41559899       0.09936693       0.41526985      -0.58362288      -0.02713764      -0.01740350       0.09652590
H       -0.97868846       0.88311503       0.94336684       0.33147616      -0.09588559      -0.01850209      -0.11251754      -0.00538833       0.06563628
H       -0.74053009       1.07255001      -0.79202839       0.11321327      -0.19007716      -0.05502875       0.06824766       0.14282271      -0.15878875
H        2.36580263      -0.81506035       0.06934633      -0.30530741      -0.62410282      -0.18147784       0.19596762      -0.09976092       0.00768452
7
Lattice="13.0 0.0 0.0 0.0 9.0 0.0 0.0 0.0 9.0" Properties=species:S:1:pos:R:3:momenta:R:3:forces:R:3 EPS_SCF=1e-06 energy=-671.0644183663754 units=gap_units Integrated_spin_density=1.924e-05 opt_dir=/home/tks32/dft_pbe/apr_8_opt_fragments_subset/singlepoint_5_CH3OH time=50.0 free_energy=-671.0644183663754 cutoff=8.0 nneightol=1.2 pbc="T T T"
C       -0.70980649       0.34388786       0.03175531      -0.14613626      -0.31730614      -0.40691784       0.11436031       0.17935628       0.19426717
O        0.62146076      -0.23598116       0.30626809      -0.62254882       0.90825150       1.32489774      -0.01402977       0.09293361      -0.19169899
H       -1.47214571      -0.41668842      -0.14314094       0.52993614      -0.09614964      -0.07934833      -0.22259258      -0.27690380      -0.03130399
H        0.91347171      -0.83193117      -0.41532179       0.09936693       0.41526985      -0.58362288      -0.02750804      -0.03010173       0.07484837
H       -0.97901160       0.88309955       0.94355534       0.33147616      -0.09588559      -0.01850209      -0.10863071       0.00402596       0.08078996
H       -0.74033409       1.07296018      -0.79248441       0.11321327      -0.19007716      -0.05502875       0.06869308       0.12812627      -0.13545007
H        2.36636542      -0.81534684       0.06936840      -0.30530741      -0.62410282      -0.18147784       0.18970771      -0.09743659       0.00854755
7
Lattice="13.0 0.0 0.0 0.0 9.0 0.0 0.0 0.0 9.0" Properties=species:S:1:pos:R:3:momenta:R:3:forces:R:3 EPS_SCF=1e-06 energy=-671.0663253720649 units=gap_units Integrated_spin_density=1.924e-05 opt_dir=/home/tks32/dft_pbe/apr_8_opt_fragments_subset/singlepoint_5_CH3OH time=50.0 free_energy=-671.0663253720649 cutoff=8.0 nneightol=1.2 pbc="T T T"
C       -0.70899731       0.34508027       0.03304211      -0.14613626      -0.31730614      -0.40691784       0.01738334       0.08006250       0.08671493
O        0.62137567      -0.23548911       0.30507655      -0.62254882       0.90825150       1.32489774      -0.01030689       0.12336201      -0.13830044
H       -1.47358488      -0.41844010      -0.14335719       0.52993614      -0.09614964      -0.07934833      -0.12270158      -0.17836289      -0.00812347
H        0.91331312      -0.83207295      -0.41483163       0.09936693       0.41526985      -0.58362288      -0.02895395      -0.05115257       0.03810329
H       -0.97965171       0.88309857       0.94398476       0.33147616      -0.09588559      -0.01850209      -0.10061742       0.01840868       0.10381755