7
Lattice="13.0 0.0 0.0 0.0 9.0 0.0 0.0 0.0 9.0" Properties=species:S:1:pos:R:3:momenta:R:3:forces:R:3 EPS_SCF=1e-06 energy=-671.2841362776522 units=gap_units Integrated_spin_density=1.924e-05 opt_dir=/home/tks32/dft_pbe/apr_8_opt_fragments_subset/singlepoint_5_CH3OH time=95.0 free_energy=-671.2841362776522 cutoff=8.0 nneightol=1.2 pbc="T T T"
C       -0.72495839       0.50495247      -0.03809570      -0.96891193       1.89098273       0.92812650      -0.59926011      -0.19416330      -0.09979440
O        0.96417372      -0.37482227       0.30020401       1.92148501      -1.95490099       0.13110114       1.64680318      -0.76027596      -1.73141193
H       -1.38513737      -0.32318781      -0.38234460       0.40141705       0.06509588      -0.24601051       0.07025352       0.51356954       0.10278725
H        0.79113300      -1.35855525       0.31908994      -0.66690856       0.30451974      -0.40249640       0.27754855      -0.28099222       0.35667886
H       -0.93116832       0.86016427       0.98382971       0.00266466      -0.03684773      -0.24807636      -0.10223403       0.12991134      -0.07569232
H       -0.51030630       1.26648423      -0.80988491      -0.22583135      -0.01910424      -0.10381681      -0.12567883       0.13537359       0.08579573
H        1.79626366      -0.57503564      -0.37279846      -0.46391488      -0.24974539      -0.05882756      -1.16743228       0.45657701       1.36163681
7
Lattice="13.0 0.0 0.0 0.0 9.0 0.0 0.0 0.0 9.0" Properties=species:S:1:pos:R:3:momenta:R:3:forces:R:3 EPS_SCF=1e-06 energy=-671.3733415666068 units=gap_units Integrated_spin_density=1.924e-05 opt_dir=/home/tks32/dft_pbe/apr_8_opt_fragments_subset/singlepoint_5_CH3OH time=95.0 free_energy=-671.3733415666068 cutoff=8.0 nneightol=1.2 pbc="T T T"
C       -0.73095099       0.50301084      -0.03909364      -0.96891193       1.89098273       0.92812650      -0.52674879       0.27037118      -0.06997496
O        0.98064175      -0.38242503       0.28288989       1.92148501      -1.95490099       0.13110114       1.05897789      -0.74409632      -1.12328231
H       -1.38443483      -0.31805211      -0.38131673       0.40141705       0.06509588      -0.24601051      -0.13954697       0.25903355       0.00714638
H        0.79390849      -1.36136517       0.32265673      -0.66690856       0.30451974      -0.40249640       0.29197892      -0.25318751       0.36806001
H       -0.93219066       0.86146338       0.98307279       0.00266466      -0.03684773      -0.24807636      -0.09534675       0.09006401      -0.09019297
H       -0.51156309       1.26783797      -0.80902695      -0.22583135      -0.01910424      -0.10381681      -0.13353575       0.05150903       0.12684097
H        1.78458934      -0.57046987      -0.35918209      -0.46391488      -0.24974539      -0.05882756      -0.45577855       0.32630607       0.78140289
7
Lattice="13.0 0.0 0.0 0.0 9.0 0.0 0.0 0.0 9.0" Properties=species:S:1:pos:R:3:momenta:R:3:forces:R:3 EPS_SCF=1e-06 energy=-671.415693531095 units=gap_units Integrated_spin_density=1.924e-05 opt_dir=/home/tks32/dft_pbe/apr_8_opt_fragments_subset/singlepoint_5_CH3OH time=95.0 free_energy=-671.415693531095 cutoff=8.0 nneightol=1.2 pbc="T T T"
C       -0.74241294       0.50437828      -0.04079797      -0.96891193       1.89098273       0.92812650      -0.46861408       0.75016723      -0.01727680
O        1.00766334      -0.39784016       0.25436598       1.92148501      -1.95490099       0.13110114      -0.61787500      -0.56066496       0.36745592
H       -1.38541026      -0.31044569      -0.38030931       0.40141705       0.06509588      -0.24601051      -0.39518213      -0.05318397      -0.11136627
H        0.79977028      -1.36681105       0.33010721      -0.66690856       0.30451974      -0.40249640       0.34528593      -0.16803941       0.34818781
H       -0.93420925       0.86367020       0.98135245       0.00266466      -0.03684773      -0.24807636      -0.10583970       0.07062550      -0.05139327
H       -0.51423265       1.26964976      -0.80679347      -0.22583135      -0.01910424      -0.10381681      -0.11845334       0.01322205       0.11315940
H        1.76883148      -0.56260134      -0.33792491      -0.46391488      -0.24974539      -0.05882756       1.36067831      -0.05212644      -0.64876679
7
Lattice="13.0 0.0 0.0 0.0 9.0 0.0 0.0 0.0 9.0" Properties=species:S:1:pos:R:3:momenta:R:3:forces:R:3 EPS_SCF=1e-06 energy=-671.4258215538356 units=gap_units Integrated_spin_density=1.924e-05 opt_dir=/home/tks32/dft_pbe/apr_8_opt_fragments_subset/singlepoint_5_CH3OH time=95.0 free_energy=-671.4258215538356 cutoff=8.0 nneightol=1.2 pbc="T T T"
C       -0.74358448       0.50625370      -0.04084116      -0.96891193       1.89098273       0.92812650      -0.47643966       0.63621370      -0.02287987
O        1.00611865      -0.39924182       0.25528462       1.92148501      -1.95490099       0.13110114      -0.43292000      -0.51808964       0.21167542
H       -1.38639821      -0.31057865      -0.38058773       0.40141705       0.06509588      -0.24601051      -0.36531671      -0.01136179      -0.09483000
H        0.80063349      -1.36723114       0.33097768      -0.66690856       0.30451974      -0.40249640       0.32793668      -0.22444814       0.34679388
H       -0.93447384       0.86384677       0.98122397       0.00266466      -0.03684773      -0.24807636      -0.11317586       0.08685258      -0.02578767
H       -0.51452878       1.26968281      -0.80651057      -0.22583135      -0.01910424      -0.10381681      -0.11407100       0.05342232       0.08262389
H        1.77223317      -0.56273166      -0.33954683      -0.46391488      -0.24974539      -0.05882756       1.17398654      -0.02258904      -0.49759565
7
Lattice="13.0 0.0 0.0 0.0 9.0 0.0 0.0 0.0 9.0" Properties=species:S:1:pos:R:3:momenta:R:3:forces:R:3 EPS_SCF=1e-06 energy=-671.4406878809202 units=gap_units Integrated_spin_density=1.924e-05 opt_dir=/home/tks32/dft_pbe/apr_8_opt_fragments_subset/singlepoint_5_CH3OH time=95.0 free_energy=-671.4406878809202 cutoff=8.0 nneightol=1.2 pbc="T T T"
C       -0.74596871       0.50971739      -0.04094389      -0.96891193       1.89098273       0.92812650      -0.48503600       0.43538728      -0.03207246
O        1.00352005      -0.40194942       0.25670223       1.92148501      -1.95490099       0.13110114      -0.11254242      -0.44144567      -0.05944531
H       -1.38830706      -0.31073003      -0.38110299       0.40141705       0.06509588      -0.24601051      -0.31391945       0.06080981      -0.06613283
H        0.80232573      -1.36823572       0.33272909      -0.66690856       0.30451974      -0.40249640       0.29890546      -0.31949749       0.34289565
H       -0.93502788       0.86424810       0.98103636       0.00266466      -0.03684773      -0.24807636      -0.12642260       0.11525591       0.01949478
H       -0.51511370       1.26986168      -0.80602534      -0.22583135      -0.01910424      -0.10381681      -0.10659717       0.12385423       0.02895069
H        1.77857157      -0.56291200      -0.34239546      -0.46391488      -0.24974539      -0.05882756       0.84561218       0.02563593      -0.23369052
7
Lattice="13.0 0.0 0.0 0.0 9.0 0.0 0.0 0.0 9.0" Properties=species:S:1:pos:R:3:momenta:R:3:forces:R:3 EPS_SCF=1e-06 energy=-671.4542873712019 units=gap_units Integrated_spin_density=1.924e-05 opt_dir=/home/tks32/dft_pbe/apr_8_opt_fragments_subset/singlepoint_5_CH3OH time=95.0 free_energy=-671.4542873712019 cutoff=8.0 nneightol=1.2 pbc="T T T"
C       -0.74967025       0.51423120      -0.04113923      -0.96891193       1.89098273       0.92812650      -0.48221041       0.20013095      -0.04175749
O        1.00082034      -0.40580218       0.25778741       1.92148501      -1.95490099       0.13110114       0.25442026      -0.35158608      -0.37344232
H       -1.39103189      -0.31067123      -0.38177885       0.40141705       0.06509588      -0.24601051      -0.25644662       0.14187649      -0.03325770
H        0.80480747      -1.37016461       0.33540517      -0.66690856       0.30451974      -0.40249640       0.26841092      -0.41804029       0.33440274
H       -0.93593201       0.86497898       0.98093003       0.00266466      -0.03684773      -0.24807636      -0.14286835       0.14806743       0.07271727
H       -0.51598203       1.27041991      -0.80549578      -0.22583135      -0.01910424      -0.10381681      -0.09881901       0.20484258      -0.03295111
H        1.78698838      -0.56299207      -0.34570877      -0.46391488      -0.24974539      -0.05882756       0.45751323       0.07470893       0.07428862
7
Lattice="13.0 0.0 0.0 0.0 9.0 0.0 0.0 0.0 9.0" Properties=species:S:1:pos:R:3:momenta:R:3:forces:R:3 EPS_SCF=1e-06 energy=-671.4655063118267 units=gap_units Integrated_spin_density=1.924e-05 opt_dir=/home/tks32/dft_pbe/apr_8_opt_fragments_subset/singlepoint_5_CH3OH time=95.0 free_energy=-671.4655063118267 cutoff=8.0 nneightol=1.2 pbc="T T T"
C       -0.75473965       0.51901495      -0.04146553      -0.96891193       1.89098273       0.92812650      -0.45528102       0.00270664      -0.04874153
O        0.99930760      -0.41053687       0.25741810       1.92148501      -1.95490099       0.13110114       0.55258547      -0.28239864      -0.63591896
H       -1.39440855      -0.31010694      -0.38250699       0.40141705       0.06509588      -0.24601051      -0.21261743       0.20403290      -0.00631166
H        0.80800846      -1.37340733       0.33901892      -0.66690856       0.30451974      -0.40249640       0.24869581      -0.47267690       0.31885477
H       -0.93726066       0.86617044       0.98109643       0.00266466      -0.03684773      -0.24807636      -0.15860669       0.17462189       0.11686143
H       -0.51711970       1.27166062      -0.80513793      -0.22583135      -0.01910424      -0.10381681      -0.09493553       0.26884194      -0.08170666
H        1.79621250      -0.56279487      -0.34842300      -0.46391488      -0.24974539      -0.05882756       0.12015939       0.10487217       0.33696261
7
Lattice="13.0 0.0 0.0 0.0 9.0 0.0 0.0 0.0 9.0" Properties=species:S:1:pos:R:3:momenta:R:3:forces:R:3 EPS_SCF=1e-06 energy=-671.4782259660259 units=gap_units Integrated_spin_density=1.924e-05 opt_dir=/home/tks32/dft_pbe/apr_8_opt_fragments_subset/singlepoint_5_CH3OH time=95.0 free_energy=-671.4782259660259 cutoff=8.0 nneightol=1.2 pbc="T T T"
C       -0.76094599       0.52333010      -0.04193520      -0.96891193       1.89098273       0.92812650      -0.40013492      -0.10005197      -0.05068522
O        0.99994135      -0.41581775       0.25478959       1.92148501      -1.95490099       0.13110114       0.70758698      -0.26411063      -0.78412289
H       -1.39821524      -0.30886238      -0.38318511       0.40141705       0.06509588      -0.24601051      -0.19595829       0.22750470       0.00754496
H        0.81178732      -1.37803249       0.34342259      -0.66690856       0.30451974      -0.40249640       0.24707338      -0.45099593       0.29482055
H       -0.93902913       0.86787326       0.98166815       0.00266466      -0.03684773      -0.24807636      -0.17001324       0.18634590       0.13706801
H       -0.51848638       1.27374798      -0.80511089      -0.22583135      -0.01910424      -0.10381681      -0.09829282       0.29407401      -0.10011505
H        1.80494808      -0.56223872      -0.34964913      -0.46391488      -0.24974539      -0.05882756      -0.09026110       0.10723392       0.49548963
7
Lattice="13.0 0.0 0.0 0.0 9.0 0.0 0.0 0.0 9.0" Properties=species:S:1:pos:R:3:momenta:R:3:forces:R:3 EPS_SCF=1e-06 energy=-671.495850502997 units=gap_units Integrated_spin_density=1.924e-05 opt_dir=/home/tks32/dft_pbe/apr_8_opt_fragments_subset/singlepoint_5_CH3OH time=95.0 free_energy=-671.495850502997 cutoff=8.0 nneightol=1.2 pbc="T T T"
C       -0.76795756       0.52685721      -0.04253851      -0.96891193       1.89098273       0.92812650      -0.32200027      -0.09217797      -0.04585548
O        1.00303318      -0.42151169       0.24962975       1.92148501      -1.95490099       0.13110114       0.69712917      -0.30271825      -0.79789813
H       -1.40233955      -0.30693158      -0.38376853       0.40141705       0.06509588      -0.24601051      -0.20823451       0.20869470       0.00692755
H        0.81606872      -1.38380222       0.34843647      -0.66690856       0.30451974      -0.40249640       0.26355245      -0.35083506       0.26139995
H       -0.94122659       0.87006984       0.98267112       0.00266466      -0.03684773      -0.24807636      -0.17534350       0.18038718       0.12711315
H       -0.52006666       1.27667452      -0.80544331      -0.22583135      -0.01910424      -0.10381681      -0.10958295       0.27454764      -0.08350821
H        1.81248845      -0.56135607      -0.34898700      -0.46391488      -0.24974539      -0.05882756      -0.14552039       0.08210175       0.53182118
7
Lattice="13.0 0.0 0.0 0.0 9.0 0.0 0.0 0.0 9.0" Properties=species:S:1:pos:R:3:momenta:R:3:forces:R:3 EPS_SCF=1e-06 energy=-671.517696828939 units=gap_units Integrated_spin_density=1.924e-05 opt_dir=/home/tks32/dft_pbe/apr_8_opt_fragments_subset/singlepoint_5_CH3OH time=95.0 free_energy=-671.517696828939 cutoff=8.0 nneightol=1.2 pbc="T T T"
C       -0.77545759       0.52969105      -0.04325090      -0.96891193       1.89098273       0.92812650      -0.23312174       0.00686444      -0.03302540
O        1.00839135      -0.42775461       0.24203809       1.92148501      -1.95490099       0.13110114       0.52344692      -0.37744897      -0.67947288
H       -1.40682074      -0.30442284      -0.38426801       0.40141705       0.06509588      -0.24601051      -0.24143151       0.15752954      -0.00473684
H        0.82089567      -1.39029114       0.35391469      -0.66690856       0.30451974      -0.40249640       0.29301145      -0.19591624       0.21851652
H       -0.94385210       0.87271319       0.98404341       0.00266466      -0.03684773      -0.24807636      -0.17443265       0.15872735       0.08893899
H       -0.52189376       1.28032271      -0.80605100      -0.22583135      -0.01910424      -0.10381681      -0.12668870       0.21802053      -0.03846609
H        1.81873717      -0.56025836      -0.34642629      -0.46391488      -0.24974539      -0.05882756      -0.04078378       0.03222336       0.44824571
7
Lattice="13.0 0.0 0.0 0.0 9.0 0.0 0.0 0.0 9.0" Properties=species:S:1:pos:R:3:momenta:R:3:forces:R:3 EPS_SCF=1e-06 energy=-671.541896755329 units=gap_units Integrated_spin_density=1.924e-05 opt_dir=/home/tks32/dft_pbe/apr_8_opt_fragments_subset/singlepoint_5_CH3OH time=95.0 free_energy=-671.541896755329 cutoff=8.0 nneightol=1.2 pbc="T T T"
C       -0.78399936       0.53252944      -0.04411438      -0.96891193       1.89098273       0.92812650      -0.14259902       0.16650707      -0.01054148
O        1.01620343      -0.43574322       0.23126743       1.92148501      -1.95490099       0.13110114       0.17107781      -0.45160473      -0.42326916
H       -1.41241366      -0.30118457      -0.38478519       0.40141705       0.06509588      -0.24601051      -0.28360056       0.08797834      -0.02164714
H        0.82707798      -1.39765367       0.36038490      -0.66690856       0.30451974      -0.40249640       0.32916977      -0.01375782       0.16319989
H       -0.94728695       0.87609047       0.98582803       0.00266466      -0.03684773      -0.24807636      -0.16702558       0.12313868       0.02433061
H       -0.52430948       1.28497881      -0.80683689      -0.22583135      -0.01910424      -0.10381681      -0.14702765       0.13343868       0.02723650
H        1.82472803      -0.55901727      -0.34174393      -0.46391488      -0.24974539      -0.05882756       0.24000523      -0.04570022       0.24069077
7
Lattice="13.0 0.0 0.0 0.0 9.0 0.0 0.0 0.0 9.0" Properties=species:S:1:pos:R:3:momenta:R:3:forces:R:3 EPS_SCF=1e-06 energy=-671.5637851316883 units=gap_units Integrated_spin_density=1.924e-05 opt_dir=/home/tks32/dft_pbe/apr_8_opt_fragments_subset/singlepoint_5_CH3OH time=95.0 free_energy=-671.5637851316883 cutoff=8.0 nneightol=1.2 pbc="T T T"
C       -0.79339551       0.53642896      -0.04503894      -0.96891193       1.89098273       0.92812650      -0.08065572       0.29088419       0.01534174
O        1.02506219      -0.44660727       0.21783097       1.92148501      -1.95490099       0.13110114      -0.25729604      -0.43777689      -0.11870063
H       -1.41980719      -0.29740109      -0.38543900       0.40141705       0.06509588      -0.24601051      -0.30102240       0.04299029      -0.02756335
H        0.83535297      -1.40504044       0.36786234      -0.66690856       0.30451974      -0.40249640       0.34936596       0.10132957       0.10668120
H       -0.95178100       0.88024113       0.98775552       0.00266466      -0.03684773      -0.24807636      -0.15360641       0.08409517      -0.04868494
H       -0.52766299       1.29046411      -0.80743807      -0.22583135      -0.01910424      -0.10381681      -0.16164269       0.05352325       0.08745572
H        1.83223152      -0.55808540      -0.33553283      -0.46391488      -0.24974539      -0.05882756       0.60485730      -0.13504559      -0.01452973
7
Lattice="13.0 0.0 0.0 0.0 9.0 0.0 0.0 0.0 9.0" Properties=species:S:1:pos:R:3:momenta:R:3:forces:R:3 EPS_SCF=1e-06 energy=-671.5860288854792 units=gap_units Integrated_spin_density=1.924e-05 opt_dir=/home/tks32/dft_pbe/apr_8_opt_fragments_subset/singlepoint_5_CH3OH time=95.0 free_energy=-671.5860288854792 cutoff=8.0 nneightol=1.2 pbc="T T T"
C       -0.80333072       0.54250687      -0.04583979      -0.96891193       1.89098273       0.92812650      -0.06395554       0.26222479       0.02905144
O        1.03189797      -0.46071074       0.20359810       1.92148501      -1.95490099       0.13110114      -0.48703252      -0.26113777       0.01867316
H       -1.42942879      -0.29332072      -0.38629702       0.40141705       0.06509588      -0.24601051      -0.25799444       0.06849497      -0.00486104
H        0.84621625      -1.41160006       0.37609147      -0.66690856       0.30451974      -0.40249640       0.32434319       0.04862444       0.07418343
H       -0.95740637       0.88499794       0.98929826       0.00266466      -0.03684773      -0.24807636      -0.13812291       0.05821647      -0.09829158
H       -0.53221775       1.29631299      -0.80737045      -0.22583135      -0.01910424      -0.10381681      -0.16144097       0.01865871       0.11127042
H        1.84426940      -0.55818628      -0.32948058      -0.46391488      -0.24974539      -0.05882756       0.78420321      -0.19508161      -0.13002584
7
Lattice="13.0 0.0 0.0 0.0 9.0 0.0 0.0 0.0 9.0" Properties=species:S:1:pos:R:3:momenta:R:3:forces:R:3 EPS_SCF=1e-06 energy=-671.6124513342743 units=gap_units Integrated_spin_density=1.924e-05 opt_dir=/home/tks32/dft_pbe/apr_8_opt_fragments_subset/singlepoint_5_CH3OH time=95.0 free_energy=-671.6124513342743 cutoff=8.0 nneightol=1.2 pbc="T T T"
C       -0.81375022       0.55080370      -0.04638488      -0.96891193       1.89098273       0.92812650      -0.07199991       0.06219819       0.02039378
O        1.03449049      -0.47696974       0.18962199       1.92148501      -1.95490099       0.13110114      -0.30473252       0.04396106      -0.14879116
H       -1.44120901      -0.28867753      -0.38719114       0.40141705       0.06509588      -0.24601051      -0.15631222       0.15991825       0.04478705
H        0.85980158      -1.41769646       0.38490450      -0.66690856       0.30451974      -0.40249640       0.24836911      -0.15587723       0.08170035
H       -0.96418421       0.89022443       0.98998353       0.00266466      -0.03684773      -0.24807636      -0.12331204       0.05193569      -0.10562267
H       -0.53813313       1.30228329      -0.80634437      -0.22583135      -0.01910424      -0.10381681      -0.14496865       0.03680321       0.09176563
H        1.86298450      -0.55996769      -0.32458963      -0.46391488      -0.24974539      -0.05882756       0.55295623      -0.19893918       0.01576703
7
Lattice="13.0 0.0 0.0 0.0 9.0 0.0 0.0 0.0 9.0" Properties=species:S:1:pos:R:3:momenta:R:3:forces:R:3 EPS_SCF=1e-06 energy=-671.6350490194217 units=gap_units Integrated_spin_density=1.924e-05 opt_dir=/home/tks32/dft_pbe/apr_8_opt_fragments_subset/singlepoint_5_CH3OH time=95.0 free_energy=-671.6350490194217 cutoff=8.0 nneightol=1.2 pbc="T T T"
C       -0.82495069       0.55977919      -0.04668895      -0.96891193       1.89098273       0.92812650      -0.04136674      -0.18390710      -0.00330695
O        1.03351302      -0.49262374       0.17398912       1.92148501      -1.95490099       0.13110114       0.18117022       0.23871046      -0.48708692
H       -1.45474616      -0.28219489      -0.38755768       0.40141705       0.06509588      -0.24601051      -0.05101569       0.24213062       0.09141785
H        0.87620763      -1.42557694       0.39462079      -0.66690856       0.30451974      -0.40249640       0.15764076      -0.26939217       0.09351607
H       -0.97236231       0.89602725       0.98943263       0.00266466      -0.03684773      -0.24807636      -0.10754626       0.05445895      -0.07647897
H       -0.54570634       1.30864915      -0.80425347      -0.22583135      -0.01910424      -0.10381681      -0.11916174       0.06860077       0.05447911
H        1.88804485      -0.56406002      -0.31954245      -0.46391488      -0.24974539      -0.05882756      -0.01972054      -0.15060153       0.32745981
7
Lattice="13.0 0.0 0.0 0.0 9.0 0.0 0.0 0.0 9.0" Properties=species:S:1:pos:R:3:momenta:R:3:forces:R:3 EPS_SCF=1e-06 energy=-671.6538337689723 units=gap_units Integrated_spin_density=1.924e-05 opt_dir=/home/tks32/dft_pbe/apr_8_opt_fragments_subset/singlepoint_5_CH3OH time=95.0 free_energy=-671.6538337689723 cutoff=8.0 nneightol=1.2 pbc="T T T"
C       -0.83666598       0.56619507      -0.04703690      -0.96891193       1.89098273       0.92812650       0.07911506      -0.21973043      -0.00739040
O        1.03502083      -0.50493692       0.15175863       1.92148501      -1.95490099       0.13110114       0.36587685      -0.02037564      -0.51550125
H       -1.46891948      -0.27242664      -0.38667074       0.40141705       0.06509588      -0.24601051      -0.03587618       0.19992249       0.08546952
H        0.89469665      -1.43710988       0.40557281      -0.66690856       0.30451974      -0.40249640       0.10858911       0.05517874       0.01257603
H       -0.98197535       0.90254902       0.98783705       0.00266466      -0.03684773      -0.24807636      -0.08169088       0.03494234      -0.06037639
H       -0.55487633       1.31592502      -0.80142623      -0.22583135      -0.01910424      -0.10381681      -0.09847285       0.03501444       0.05395013
H        1.91271967      -0.57019567      -0.31003462      -0.46391488      -0.24974539      -0.05882756      -0.33754111      -0.08495194       0.43127236
7
Lattice="13.0 0.0 0.0 0.0 9.0 0.0 0.0 0.0 9.0" Properties=species:S:1:pos:R:3:momenta:R:3:forces:R:3 EPS_SCF=1e-06 energy=-671.6703521204066 units=gap_units Integrated_spin_density=1.924e-05 opt_dir=/home/tks32/dft_pbe/apr_8_opt_fragments_subset/singlepoint_5_CH3OH time=95.0 free_energy=-671.6703521204066 cutoff=8.0 nneightol=1.2 pbc="T T T"
C       -0.84712361       0.56921106      -0.04749719      -0.96891193       1.89098273       0.92812650       0.21327692      -0.02466960       0.02871325
O        1.04214643      -0.51751939       0.12168461       1.92148501      -1.95490099       0.13110114       0.01317020      -0.44357588      -0.14732124
H       -1.48359369      -0.25962059      -0.38447339       0.40141705       0.06509588      -0.24601051      -0.10578408       0.04675832       0.02717543
H        0.91478870      -1.44775368       0.41667909      -0.66690856       0.30451974      -0.40249640       0.06173558       0.51784743      -0.12497701
H       -0.99280966       0.90958459       0.98531922       0.00266466      -0.03684773      -0.24807636      -0.02081602      -0.02242761      -0.08124783
H       -0.56552708       1.32371310      -0.79777991      -0.22583135      -0.01910424      -0.10381681      -0.07470119      -0.05681801       0.08038936
H        1.93211891      -0.57761509      -0.29393245      -0.46391488      -0.24974539      -0.05882756      -0.08688141      -0.01711466       0.21726806
7
Lattice="13.0 0.0 0.0 0.0 9.0 0.0 0.0 0.0 9.0" Properties=species:S:1:pos:R:3:momenta:R:3:forces:R:3 EPS_SCF=1e-06 energy=-671.6805734822238 units=gap_units Integrated_spin_density=1.924e-05 opt_dir=/home/tks32/dft_pbe/apr_8_opt_fragments_subset/singlepoint_5_CH3OH time=95.0 free_energy=-671.6805734822238 cutoff=8.0 nneightol=1.2 pbc="T T T"
C       -0.85353899       0.57175492      -0.04741567      -0.96891193       1.89098273       0.92812650       0.16736052       0.06323699       0.04648818
O        1.04950200      -0.53842222       0.08891265       1.92148501      -1.95490099       0.13110114      -0.32458006      -0.21824956       0.04233764
H       -1.50022264      -0.24596648      -0.38176989       0.40141705       0.06509588      -0.24601051      -0.10573184      -0.03735551      -0.00613942
H        0.93599240      -1.44861996       0.42540410      -0.66690856       0.30451974      -0.40249640      -0.07790831       0.29790808      -0.05455038
H       -1.00400853       0.91618008       0.98127793       0.00266466      -0.03684773      -0.24807636       0.06060488      -0.07145190      -0.05600358
H       -0.57755746       1.33041167      -0.79262913      -0.22583135      -0.01910424      -0.10381681      -0.00734732      -0.09054546       0.04609035
H        1.94983322      -0.58533801      -0.27377999      -0.46391488      -0.24974539      -0.05882756       0.28760214       0.05645736      -0.01822279
7
Lattice="13.0 0.0 0.0 0.0 9.0 0.0 0.0 0.0 9.0" Properties=species:S:1:pos:R:3:momenta:R:3:forces:R:3 EPS_SCF=1e-06 energy=-671.6776889553672 units=gap_units Integrated_spin_density=1.924e-05 opt_dir=/home/tks32/dft_pbe/apr_8_opt_fragments_subset/singlepoint_5_CH3OH time=95.0 free_energy=-671.6776889553672 cutoff=8.0 nneightol=1.2 pbc="T T T"
C       -0.85598088       0.57579270      -0.04623323      -0.96891193       1.89098273       0.92812650      -0.04548335      -0.18161621      -0.02679835
O        1.04915900      -0.56446279       0.05719266       1.92148501      -1.95490099       0.13110114       0.08649046       0.51590996      -0.30457520
H       -1.51933081      -0.23321762      -0.37921586       0.40141705       0.06509588      -0.24601051       0.06057835       0.03845257       0.03051367
H        0.95531904      -1.44242914       0.43282400      -0.66690856       0.30451974      -0.40249640      -0.26742490      -0.44380684       0.25411359
H       -1.01375518       0.92107337       0.97591629       0.00266466      -0.03684773      -0.24807636       0.14446588      -0.07365861       0.07706518
H       -0.58974380       1.33495565      -0.78639447      -0.22583135      -0.01910424      -0.10381681       0.11105433      -0.02163840      -0.07135712
H        1.97433263      -0.59171217      -0.25408940      -0.46391488      -0.24974539      -0.05882756      -0.08968077       0.16635755       0.04103823
7
Lattice="13.0 0.0 0.0 0.0 9.0 0.0 0.0 0.0 9.0" Properties=species:S:1:pos:R:3:momenta:R:3:forces:R:3 EPS_SCF=1e-06 energy=-671.6801311542212 units=gap_units Integrated_spin_density=1.924e-05 opt_dir=/home/tks32/dft_pbe/apr_8_opt_fragments_subset/singlepoint_5_CH3OH time=95.0 free_energy=-671.6801311542212 cutoff=8.0 nneightol=1.2 pbc="T T T"
C       -0.85613893       0.57516159      -0.04632635      -0.96891193       1.89098273       0.92812650      -0.01236835      -0.13968453      -0.02003742
O        1.04945955      -0.56267003       0.05613427       1.92148501      -1.95490099       0.13110114       0.01143198       0.34099202      -0.20875943
H       -1.51912030      -0.23308400      -0.37910983       0.40141705       0.06509588      -0.24601051       0.03643062       0.01678881       0.02025666
H        0.95438975      -1.44397134       0.43370703      -0.66690856       0.30451974      -0.40249640      -0.24174097      -0.26655682       0.17579844
H       -1.01325317       0.92081741       0.97618409       0.00266466      -0.03684773      -0.24807636       0.14241812      -0.07674414       0.06553344
H       -0.58935789       1.33488046      -0.78664243      -0.22583135      -0.01910424      -0.10381681       0.10281329      -0.03714782      -0.05721486
H        1.97402100      -0.59113409      -0.25394679      -0.46391488      -0.24974539      -0.05882756      -0.03898469       0.16235247       0.02442317
7
Lattice="13.0 0.0 0.0 0.0 9.0 0.0 0.0 0.0 9.0" Properties=species:S:1:pos:R:3:momenta:R:3:forces:R:3 EPS_SCF=1e-06 energy=-671.6824390990307 units=gap_units Integrated_spin_density=1.924e-05 opt_dir=/home/tks32/dft_pbe/apr_8_opt_fragments_subset/singlepoint_5_CH3OH time=95.0 free_energy=-671.6824390990307 cutoff=8.0 nneightol=1.2 pbc="T T T"
C       -0.85633022       0.57403973      -0.04648961      -0.96891193       1.89098273       0.92812650       0.04282483      -0.07025060      -0.00830011
O        1.04977538      -0.55970448       0.05435398       1.92148501      -1.95490099       0.13110114      -0.10418336       0.06148460      -0.05693282
H       -1.51878640      -0.23289717      -0.37893408       0.40141705       0.06509588      -0.24601051      -0.00395159      -0.01891793       0.00338946
H        0.95259487      -1.44641625       0.43519882      -0.66690856       0.30451974      -0.40249640      -0.19690971       0.01866580       0.04834817
H       -1.01223666       0.92028275       0.97668495       0.00266466      -0.03684773      -0.24807636       0.13861831      -0.08171437       0.04556550