7
Lattice="13.0 0.0 0.0 0.0 9.0 0.0 0.0 0.0 9.0" Properties=species:S:1:pos:R:3:momenta:R:3:forces:R:3 EPS_SCF=1e-06 energy=-670.1213032795514 units=gap_units Integrated_spin_density=1.924e-05 opt_dir=/home/tks32/dft_pbe/apr_8_opt_fragments_subset/singlepoint_5_CH3OH time=5.0 free_energy=-670.1213032795514 cutoff=8.0 nneightol=1.2 pbc="T T T"
C       -0.78273571       0.30431031      -0.02152988      -0.01055651      -0.24397781       0.15214617      -1.16175550      -0.13614999       0.37893005
O       -0.15881873      -0.97340293      -0.13868481       0.88302482       0.70608064      -0.59884458      -2.76042753      -0.18017237      -0.88966545
H       -1.91648415       0.13646302       0.04518570       0.36769236       0.03634687       0.09026527       1.38873511       0.27790587      -0.16545902
H        0.71627611      -0.96963132       0.17337714      -0.47288385      -0.30471476       0.48093729       2.71699128      -0.17892332       0.92674302
H       -0.48432097       0.87159301       0.88364675       0.14724989      -0.04209193      -0.05149219       0.05561118      -0.07942305      -0.01576141
H       -0.59130381       0.91634166      -0.90924462      -0.07521088      -0.18029304      -0.03109141       0.21821349       0.05269227      -0.19154604
H        3.21738727      -0.28567375      -0.03275028      -0.83931582       0.02865003      -0.04192054      -0.45736803       0.24407059      -0.04324116
7
Lattice="13.0 0.0 0.0 0.0 9.0 0.0 0.0 0.0 9.0" Properties=species:S:1:pos:R:3:momenta:R:3:forces:R:3 EPS_SCF=1e-06 energy=-670.220677986059 units=gap_units Integrated_spin_density=1.924e-05 opt_dir=/home/tks32/dft_pbe/apr_8_opt_fragments_subset/singlepoint_5_CH3OH time=5.0 free_energy=-670.220677986059 cutoff=8.0 nneightol=1.2 pbc="T T T"
C       -0.79435327       0.30294881      -0.01774058      -0.01055651      -0.24397781       0.15214617      -0.45424474       0.08069504      -0.00289562
O       -0.18642301      -0.97520465      -0.14758146       0.88302482       0.70608064      -0.59884458       0.23730337      -0.28041036       0.20363895
H       -1.90259680       0.13924208       0.04353111       0.36769236       0.03634687       0.09026527       0.62735980       0.23672587      -0.08779632
H        0.74344602      -0.97142055       0.18264457      -0.47288385      -0.30471476       0.48093729      -0.10020095      -0.23631965      -0.11228943
H       -0.48376486       0.87079878       0.88348914       0.14724989      -0.04209193      -0.05149219       0.03458025      -0.04681793       0.05844998
H       -0.58912168       0.91686858      -0.91116008      -0.07521088      -0.18029304      -0.03109141       0.14360302       0.01586074      -0.01794879
H        3.21281359      -0.28323304      -0.03318269      -0.83931582       0.02865003      -0.04192054      -0.48840076       0.23026628      -0.04115878
7
Lattice="13.0 0.0 0.0 0.0 9.0 0.0 0.0 0.0 9.0" Properties=species:S:1:pos:R:3:momenta:R:3:forces:R:3 EPS_SCF=1e-06 energy=-670.1722333478658 units=gap_units Integrated_spin_density=1.924e-05 opt_dir=/home/tks32/dft_pbe/apr_8_opt_fragments_subset/singlepoint_5_CH3OH time=5.0 free_energy=-670.1722333478658 cutoff=8.0 nneightol=1.2 pbc="T T T"
C       -0.81119955       0.30285871      -0.01437095      -0.01055651      -0.24397781       0.15214617       1.04419948       0.22855504      -0.34750398
O       -0.20792838      -0.98077113      -0.15272358       0.88302482       0.70608064      -0.59884458       1.97575068      -0.18816822       0.88301844
H       -1.88127224       0.14507358       0.04080683       0.36769236       0.03634687       0.09026527      -0.68909888       0.08077033       0.01171499
H        0.76648928      -0.97635550       0.18940553      -0.47288385      -0.30471476       0.48093729      -1.83427068      -0.26001034      -0.74353687
H       -0.48277787       0.86942532       0.88416958       0.14724989      -0.04209193      -0.05149219      -0.04272030      -0.03083575       0.07241345
H       -0.58513749       0.91756595      -0.91313651      -0.07521088      -0.18029304      -0.03109141       0.04039492      -0.03839348       0.16322678
H        3.20182627      -0.27779693      -0.03415090      -0.83931582       0.02865003      -0.04192054      -0.49425522       0.20808242      -0.03933280
7
Lattice="13.0 0.0 0.0 0.0 9.0 0.0 0.0 0.0 9.0" Properties=species:S:1:pos:R:3:momenta:R:3:forces:R:3 EPS_SCF=1e-06 energy=-670.1967327099101 units=gap_units Integrated_spin_density=1.924e-05 opt_dir=/home/tks32/dft_pbe/apr_8_opt_fragments_subset/singlepoint_5_CH3OH time=5.0 free_energy=-670.1967327099101 cutoff=8.0 nneightol=1.2 pbc="T T T"
C       -0.80858905       0.30343010      -0.01523971      -0.01055651      -0.24397781       0.15214617       0.88431702       0.15948706      -0.26660759
O       -0.20298900      -0.98124155      -0.15051604       0.88302482       0.70608064      -0.59884458       1.58136654      -0.15318347       0.74459403
H       -1.88299499       0.14527551       0.04083611       0.36769236       0.03634687       0.09026527      -0.51782611       0.08340352      -0.00625326
H        0.76190360      -0.97700552       0.18754668      -0.47288385      -0.30471476       0.48093729      -1.49516283      -0.24474787      -0.61807839
H       -0.48288467       0.86934823       0.88435061       0.14724989      -0.04209193      -0.05149219      -0.03531447      -0.02833604       0.06318286
H       -0.58503650       0.91746996      -0.91272844      -0.07521088      -0.18029304      -0.03109141       0.06260877      -0.02700414       0.12308132
H        3.20059063      -0.27727673      -0.03424923      -0.83931582       0.02865003      -0.04192054      -0.47998893       0.21038095      -0.03991897
7
Lattice="13.0 0.0 0.0 0.0 9.0 0.0 0.0 0.0 9.0" Properties=species:S:1:pos:R:3:momenta:R:3:forces:R:3 EPS_SCF=1e-06 energy=-670.2282389548313 units=gap_units Integrated_spin_density=1.924e-05 opt_dir=/home/tks32/dft_pbe/apr_8_opt_fragments_subset/singlepoint_5_CH3OH time=5.0 free_energy=-670.2282389548313 cutoff=8.0 nneightol=1.2 pbc="T T T"
C       -0.80375858       0.30439180      -0.01676958      -0.01055651      -0.24397781       0.15214617       0.60193070       0.03879589      -0.12297778
O       -0.19410690      -0.98209469      -0.14644022       0.88302482       0.70608064      -0.59884458       0.80394983      -0.09330935       0.47117748
H       -1.88599827       0.14569124       0.04084493       0.36769236       0.03634687       0.09026527      -0.22036153       0.08833051      -0.03737816
H        0.75358168      -0.97827721       0.18413965      -0.47288385      -0.30471476       0.48093729      -0.81295823      -0.21756658      -0.36811272
H       -0.48307987       0.86919935       0.88469081       0.14724989      -0.04209193      -0.05149219      -0.02169704      -0.02391740       0.04721499
H       -0.58476996       0.91730782      -0.91201586      -0.07521088      -0.18029304      -0.03109141       0.10203276      -0.00635202       0.05103606
H        3.19813190      -0.27621830      -0.03444973      -0.83931582       0.02865003      -0.04192054      -0.45289649       0.21401895      -0.04095988
7
Lattice="13.0 0.0 0.0 0.0 9.0 0.0 0.0 0.0 9.0" Properties=species:S:1:pos:R:3:momenta:R:3:forces:R:3 EPS_SCF=1e-06 energy=-670.242911911237 units=gap_units Integrated_spin_density=1.924e-05 opt_dir=/home/tks32/dft_pbe/apr_8_opt_fragments_subset/singlepoint_5_CH3OH time=5.0 free_energy=-670.242911911237 cutoff=8.0 nneightol=1.2 pbc="T T T"
C       -0.79732993       0.30539147      -0.01857167      -0.01055651      -0.24397781       0.15214617       0.25213870      -0.09889310       0.04763159
O       -0.18333329      -0.98318515      -0.14114286       0.88302482       0.70608064      -0.59884458      -0.23909538      -0.02812436       0.10360352
H       -1.88946314       0.14637080       0.04072362       0.36769236       0.03634687       0.09026527       0.13070598       0.09525046      -0.07354141
H        0.74328109      -0.98017398       0.17980055      -0.47288385      -0.30471476       0.48093729       0.12525961      -0.18661414      -0.02964992
H       -0.48333057       0.86898266       0.88516023       0.14724989      -0.04209193      -0.05149219      -0.00334575      -0.01760654       0.03037921
H       -0.58417729       0.91713992      -0.91119808      -0.07521088      -0.18029304      -0.03109141       0.14999993       0.01880438      -0.03625023
H        3.19435313      -0.27452573      -0.03477179      -0.83931582       0.02865003      -0.04192054      -0.41566309       0.21718330      -0.04217276
7
Lattice="13.0 0.0 0.0 0.0 9.0 0.0 0.0 0.0 9.0" Properties=species:S:1:pos:R:3:momenta:R:3:forces:R:3 EPS_SCF=1e-06 energy=-670.234985934937 units=gap_units Integrated_spin_density=1.924e-05 opt_dir=/home/tks32/dft_pbe/apr_8_opt_fragments_subset/singlepoint_5_CH3OH time=5.0 free_energy=-670.234985934937 cutoff=8.0 nneightol=1.2 pbc="T T T"
C       -0.79022842       0.30577513      -0.01994500      -0.01055651      -0.24397781       0.15214617      -0.09973613      -0.18662900       0.17793334
O       -0.17488470      -0.98431332      -0.13583460       0.88302482       0.70608064      -0.59884458      -1.13586518       0.00404864      -0.21540801
H       -1.89189946       0.14747945       0.04023069       0.36769236       0.03634687       0.09026527       0.43516148       0.10409533      -0.10290174
H        0.73466420      -0.98285487       0.17574063      -0.47288385      -0.30471476       0.48093729       0.96193482      -0.16817592       0.26325221
H       -0.48357365       0.86869577       0.88574124       0.14724989      -0.04209193      -0.05149219       0.01868735      -0.00734919       0.02531392
H       -0.58286114       0.91708694      -0.91065124      -0.07521088      -0.18029304      -0.03109141       0.19276593       0.03704521      -0.10516552
H        3.18878320      -0.27186910      -0.03528172      -0.83931582       0.02865003      -0.04192054      -0.37294826       0.21696492      -0.04302421
7
Lattice="13.0 0.0 0.0 0.0 9.0 0.0 0.0 0.0 9.0" Properties=species:S:1:pos:R:3:momenta:R:3:forces:R:3 EPS_SCF=1e-06 energy=-670.2367412906659 units=gap_units Integrated_spin_density=1.924e-05 opt_dir=/home/tks32/dft_pbe/apr_8_opt_fragments_subset/singlepoint_5_CH3OH time=5.0 free_energy=-670.2367412906659 cutoff=8.0 nneightol=1.2 pbc="T T T"
C       -0.79029076       0.30565849      -0.01983379      -0.01055651      -0.24397781       0.15214617      -0.09336216      -0.17532304       0.16735197
O       -0.17559462      -0.98431079      -0.13596923       0.88302482       0.70608064      -0.59884458      -1.06887747      -0.00321159      -0.19310443
H       -1.89162749       0.14754451       0.04016638       0.36769236       0.03634687       0.09026527       0.42181769       0.10418683      -0.10128904
H        0.73526540      -0.98295998       0.17590517      -0.47288385      -0.30471476       0.48093729       0.90380257      -0.17030805       0.24207460
H       -0.48356197       0.86869118       0.88575706       0.14724989      -0.04209193      -0.05149219       0.01888536      -0.00673859       0.02756276
H       -0.58274067       0.91711009      -0.91071697      -0.07521088      -0.18029304      -0.03109141       0.19102740       0.03495229      -0.09965055
H        3.18855011      -0.27173350      -0.03530861      -0.83931582       0.02865003      -0.04192054      -0.37329339       0.21644216      -0.04294532
7
Lattice="13.0 0.0 0.0 0.0 9.0 0.0 0.0 0.0 9.0" Properties=species:S:1:pos:R:3:momenta:R:3:forces:R:3 EPS_SCF=1e-06 energy=-670.2398862103585 units=gap_units Integrated_spin_density=1.924e-05 opt_dir=/home/tks32/dft_pbe/apr_8_opt_fragments_subset/singlepoint_5_CH3OH time=5.0 free_energy=-670.2398862103585 cutoff=8.0 nneightol=1.2 pbc="T T T"
C       -0.79041137       0.30543236      -0.01961807      -0.01055651      -0.24397781       0.15214617      -0.08061157      -0.15340142       0.14687241
O       -0.17697214      -0.98431073      -0.13622383       0.88302482       0.70608064      -0.59884458      -0.93963509      -0.01727747      -0.15013228
H       -1.89109123       0.14767506       0.04003851       0.36769236       0.03634687       0.09026527       0.39557136       0.10432769      -0.09813975
H        0.73643102      -0.98317226       0.17622052      -0.47288385      -0.30471476       0.48093729       0.79171200      -0.17438528       0.20127396
H       -0.48353841       0.86868238       0.88579035       0.14724989      -0.04209193      -0.05149219       0.01923080      -0.00556725       0.03187778
H       -0.58250023       0.91715508      -0.91084499      -0.07521088      -0.18029304      -0.03109141       0.18763560       0.03090283      -0.08896308
H        3.18808238      -0.27146189      -0.03536249      -0.83931582       0.02865003      -0.04192054      -0.37390309       0.21540090      -0.04278903
7
Lattice="13.0 0.0 0.0 0.0 9.0 0.0 0.0 0.0 9.0" Properties=species:S:1:pos:R:3:momenta:R:3:forces:R:3 EPS_SCF=1e-06 energy=-670.2437820636129 units=gap_units Integrated_spin_density=1.924e-05 opt_dir=/home/tks32/dft_pbe/apr_8_opt_fragments_subset/singlepoint_5_CH3OH time=5.0 free_energy=-670.2437820636129 cutoff=8.0 nneightol=1.2 pbc="T T T"
C       -0.79058190       0.30511091      -0.01931099      -0.01055651      -0.24397781       0.15214617      -0.06143322      -0.12221821       0.11784152
O       -0.17893430      -0.98432396      -0.13656840       0.88302482       0.70608064      -0.59884458      -0.75735804      -0.03722840      -0.08965768
H       -1.89030449       0.14787276       0.03984797       0.36769236       0.03634687       0.09026527       0.35727158       0.10441722      -0.09360607
H        0.73808875      -0.98349738       0.17665908      -0.47288385      -0.30471476       0.48093729       0.63374730      -0.18004128       0.14385509
H       -0.48350242       0.86867019       0.88584481       0.14724989      -0.04209193      -0.05149219       0.01961770      -0.00393332       0.03789191
H       -0.58213959       0.91721933      -0.91102860      -0.07521088      -0.18029304      -0.03109141       0.18275505       0.02515482      -0.07376634
H        3.18737396      -0.27105185      -0.03544387      -0.83931582       0.02865003      -0.04192054      -0.37460037       0.21384918      -0.04255843
7
Lattice="13.0 0.0 0.0 0.0 9.0 0.0 0.0 0.0 9.0" Properties=species:S:1:pos:R:3:momenta:R:3:forces:R:3 EPS_SCF=1e-06 energy=-670.247681067549 units=gap_units Integrated_spin_density=1.924e-05 opt_dir=/home/tks32/dft_pbe/apr_8_opt_fragments_subset/singlepoint_5_CH3OH time=5.0 free_energy=-670.247681067549 cutoff=8.0 nneightol=1.2 pbc="T T T"
C       -0.79078891       0.30471510      -0.01893194      -0.01055651      -0.24397781       0.15214617      -0.03569274      -0.08375459       0.08223909
O       -0.18136023      -0.98436831      -0.13695664       0.88302482       0.70608064      -0.59884458      -0.53531375      -0.06165797      -0.01619515
H       -1.88928508       0.14814168       0.03959492       0.36769236       0.03634687       0.09026527       0.30815318       0.10427339      -0.08791854
H        0.74013296      -0.98394688       0.17717914      -0.47288385      -0.30471476       0.48093729       0.44143747      -0.18674629       0.07409007
H       -0.48345294       0.86865579       0.88592685       0.14724989      -0.04209193      -0.05149219       0.01988020      -0.00197863       0.04505338
H       -0.58165576       0.91729908      -0.91125812      -0.07521088      -0.18029304      -0.03109141       0.17662203       0.01806529      -0.05501051
H        3.18640996      -0.27049645      -0.03555421      -0.83931582       0.02865003      -0.04192054      -0.37508639       0.21179879      -0.04225833
7
Lattice="13.0 0.0 0.0 0.0 9.0 0.0 0.0 0.0 9.0" Properties=species:S:1:pos:R:3:momenta:R:3:forces:R:3 EPS_SCF=1e-06 energy=-670.2509248944831 units=gap_units Integrated_spin_density=1.924e-05 opt_dir=/home/tks32/dft_pbe/apr_8_opt_fragments_subset/singlepoint_5_CH3OH time=5.0 free_energy=-670.2509248944831 cutoff=8.0 nneightol=1.2 pbc="T T T"
C       -0.79101165       0.30427339      -0.01850685      -0.01055651      -0.24397781       0.15214617      -0.00316701      -0.04065432       0.04271583
O       -0.18408996      -0.98447116      -0.13732258       0.88302482       0.70608064      -0.59884458      -0.29070886      -0.08858916       0.06447774
H       -1.88805308       0.14849014       0.03927743       0.36769236       0.03634687       0.09026527       0.24988902       0.10359672      -0.08140058
H        0.74242334      -0.98454205       0.17772282      -0.47288385      -0.30471476       0.48093729       0.22954675      -0.19381100      -0.00257698
H       -0.48338811       0.86864081       0.88604667       0.14724989      -0.04209193      -0.05149219       0.01978285       0.00011598       0.05260670
H       -0.58104003       0.91738929      -0.91152085      -0.07521088      -0.18029304      -0.03109141       0.16954616       0.01007668      -0.03392740
H        3.18515950      -0.26978042      -0.03569664      -0.83931582       0.02865003      -0.04192054      -0.37488891       0.20926511      -0.04189531
7
Lattice="13.0 0.0 0.0 0.0 9.0 0.0 0.0 0.0 9.0" Properties=species:S:1:pos:R:3:momenta:R:3:forces:R:3 EPS_SCF=1e-06 energy=-670.253147534868 units=gap_units Integrated_spin_density=1.924e-05 opt_dir=/home/tks32/dft_pbe/apr_8_opt_fragments_subset/singlepoint_5_CH3OH time=5.0 free_energy=-670.253147534868 cutoff=8.0 nneightol=1.2 pbc="T T T"
C       -0.79121603       0.30382562      -0.01807150      -0.01055651      -0.24397781       0.15214617       0.03619681       0.00343662       0.00290381
O       -0.18690584      -0.98467317      -0.13757228       0.88302482       0.70608064      -0.59884458      -0.04616570      -0.11519040       0.14489468
H       -1.88663558       0.14893173       0.03889113       0.36769236       0.03634687       0.09026527       0.18505442       0.10193091      -0.07452992
H        0.74476824      -0.98531712       0.17820894      -0.47288385      -0.30471476       0.48093729       0.01721830      -0.20034456      -0.07914505
H       -0.48330532       0.86862748       0.88621950       0.14724989      -0.04209193      -0.05149219       0.01901188       0.00213049       0.05952710
H       -0.58027642       0.91748292      -0.91179922      -0.07521088      -0.18029304      -0.03109141       0.16196096       0.00175948      -0.01217155
H        3.18357096      -0.26887747      -0.03587658      -0.83931582       0.02865003      -0.04192054      -0.37327668       0.20627745      -0.04147906
7
Lattice="13.0 0.0 0.0 0.0 9.0 0.0 0.0 0.0 9.0" Properties=species:S:1:pos:R:3:momenta:R:3:forces:R:3 EPS_SCF=1e-06 energy=-670.2544438071321 units=gap_units Integrated_spin_density=1.924e-05 opt_dir=/home/tks32/dft_pbe/apr_8_opt_fragments_subset/singlepoint_5_CH3OH time=5.0 free_energy=-670.2544438071321 cutoff=8.0 nneightol=1.2 pbc="T T T"
C       -0.79134909       0.30342746      -0.01767560      -0.01055651      -0.24397781       0.15214617       0.08082131       0.04339847      -0.03228093
O       -0.18950503      -0.98501687      -0.13759335       0.88302482       0.70608064      -0.59884458       0.16889003      -0.13763374       0.21548048
H       -1.88509974       0.14947243       0.03843872       0.36769236       0.03634687       0.09026527       0.11859088       0.09882386      -0.06804181
H        0.74690286      -0.98629627       0.17853522      -0.47288385      -0.30471476       0.48093729      -0.17075972      -0.20529279      -0.14664449
H       -0.48320409       0.86861847       0.88645871       0.14724989      -0.04209193      -0.05149219       0.01729085       0.00383190       0.06459255
H       -0.57936153       0.91756967      -0.91206685      -0.07521088      -0.18029304      -0.03109141       0.15454998      -0.00607171       0.00792300
H        3.18161664      -0.26777489      -0.03609683      -0.83931582       0.02865003      -0.04192054      -0.36938332       0.20294401      -0.04102879
7
Lattice="13.0 0.0 0.0 0.0 9.0 0.0 0.0 0.0 9.0" Properties=species:S:1:pos:R:3:momenta:R:3:forces:R:3 EPS_SCF=1e-06 energy=-670.2554020063236 units=gap_units Integrated_spin_density=1.924e-05 opt_dir=/home/tks32/dft_pbe/apr_8_opt_fragments_subset/singlepoint_5_CH3OH time=5.0 free_energy=-670.2554020063236 cutoff=8.0 nneightol=1.2 pbc="T T T"
C       -0.79135665       0.30309996      -0.01733326      -0.01055651      -0.24397781       0.15214617       0.13146434       0.07756090      -0.06114862
O       -0.19181873      -0.98556860      -0.13728315       0.88302482       0.70608064      -0.59884458       0.34564655      -0.15419684       0.27349128
H       -1.88339704       0.15015956       0.03788628       0.36769236       0.03634687       0.09026527       0.05072958       0.09373099      -0.06215586
H        0.74875377      -0.98758105       0.17863292      -0.47288385      -0.30471476       0.48093729      -0.32758456      -0.20817318      -0.20263707
H       -0.48307731       0.86861543       0.88679477       0.14724989      -0.04209193      -0.05149219       0.01434008       0.00522728       0.06723370
H       -0.57821834       0.91764622      -0.91231964      -0.07521088      -0.18029304      -0.03109141       0.14739768      -0.01324598       0.02573742
H        3.17911432      -0.26637152      -0.03637792      -0.83931582       0.02865003      -0.04192054      -0.36199368       0.19909683      -0.04052086
7
Lattice="13.0 0.0 0.0 0.0 9.0 0.0 0.0 0.0 9.0" Properties=species:S:1:pos:R:3:momenta:R:3:forces:R:3 EPS_SCF=1e-06 energy=-670.2567281614506 units=gap_units Integrated_spin_density=1.924e-05 opt_dir=/home/tks32/dft_pbe/apr_8_opt_fragments_subset/singlepoint_5_CH3OH time=5.0 free_energy=-670.2567281614506 cutoff=8.0 nneightol=1.2 pbc="T T T"
C       -0.79115596       0.30289819      -0.01709080      -0.01055651      -0.24397781       0.15214617       0.18317123       0.10079863      -0.07918045
O       -0.19356449      -0.98635960      -0.13654261       0.88302482       0.70608064      -0.59884458       0.45844684      -0.16145819       0.31074766
H       -1.88162917       0.15098900       0.03724033       0.36769236       0.03634687       0.09026527      -0.01135106       0.08659321      -0.05768745
H        0.75006945      -0.98918405       0.17840887      -0.47288385      -0.30471476       0.48093729      -0.43157636      -0.20822883      -0.23948903
H       -0.48292895       0.86862071       0.88723430       0.14724989      -0.04209193      -0.05149219       0.01020336       0.00629190       0.06669876
H       -0.57685191       0.91770111      -0.91252942      -0.07521088      -0.18029304      -0.03109141       0.14128052      -0.01885419       0.03887490
H        3.17606104      -0.26466536      -0.03672067      -0.83931582       0.02865003      -0.04192054      -0.35017453       0.19485746      -0.03996440
7
Lattice="13.0 0.0 0.0 0.0 9.0 0.0 0.0 0.0 9.0" Properties=species:S:1:pos:R:3:momenta:R:3:forces:R:3 EPS_SCF=1e-06 energy=-670.2592066748118 units=gap_units Integrated_spin_density=1.924e-05 opt_dir=/home/tks32/dft_pbe/apr_8_opt_fragments_subset/singlepoint_5_CH3OH time=5.0 free_energy=-670.2592066748118 cutoff=8.0 nneightol=1.2 pbc="T T T"
C       -0.79064311       0.30287065      -0.01698585      -0.01055651      -0.24397781       0.15214617       0.22927300       0.10857987      -0.08262565
O       -0.19451140      -0.98742096      -0.13527563       0.88302482       0.70608064      -0.59884458       0.48616596      -0.15666880       0.32071429
H       -1.87989455       0.15196028       0.03650063       0.36769236       0.03634687       0.09026527      -0.05995976       0.07758563      -0.05537600
H        0.75063567      -0.99113117       0.17777638      -0.47288385      -0.30471476       0.48093729      -0.46469285      -0.20495840      -0.25114729
H       -0.48276427       0.86863671       0.88778464       0.14724989      -0.04209193      -0.05149219       0.00512229       0.00717112       0.06262334
H       -0.57525418       0.91772328      -0.91267098      -0.07521088      -0.18029304      -0.03109141       0.13694978      -0.02200580       0.04516730
H        3.17243185      -0.26263879      -0.03712919      -0.83931582       0.02865003      -0.04192054      -0.33285842       0.19029638      -0.03935599
7
Lattice="13.0 0.0 0.0 0.0 9.0 0.0 0.0 0.0 9.0" Properties=species:S:1:pos:R:3:momenta:R:3:forces:R:3 EPS_SCF=1e-06 energy=-670.2633001042295 units=gap_units Integrated_spin_density=1.924e-05 opt_dir=/home/tks32/dft_pbe/apr_8_opt_fragments_subset/singlepoint_5_CH3OH time=5.0 free_energy=-670.2633001042295 cutoff=8.0 nneightol=1.2 pbc="T T T"
C       -0.78968117       0.30305761      -0.01704470      -0.01055651      -0.24397781       0.15214617       0.26386607       0.09657764      -0.06864989
O       -0.19449234      -0.98878441      -0.13338414       0.88302482       0.70608064      -0.59884458       0.41208657      -0.13801313       0.29839857
H       -1.87828995       0.15307816       0.03565660       0.36769236       0.03634687       0.09026527      -0.08665380       0.06727455      -0.05585150
H        0.75028086      -0.99346974       0.17665243      -0.47288385      -0.30471476       0.48093729      -0.41204257      -0.19814176      -0.23303272
H       -0.48259059       0.86866677       0.88845489       0.14724989      -0.04209193      -0.05149219      -0.00038410       0.00822123       0.05515079
H       -0.57339689       0.91770187      -0.91272243      -0.07521088      -0.18029304      -0.03109141       0.13514319      -0.02177513       0.04264090
H        3.16817008      -0.26025025      -0.03761265      -0.83931582       0.02865003      -0.04192054      -0.31201537       0.18585661      -0.03865615
7
Lattice="13.0 0.0 0.0 0.0 9.0 0.0 0.0 0.0 9.0" Properties=species:S:1:pos:R:3:momenta:R:3:forces:R:3 EPS_SCF=1e-06 energy=-670.2687658139466 units=gap_units Integrated_spin_density=1.924e-05 opt_dir=/home/tks32/dft_pbe/apr_8_opt_fragments_subset/singlepoint_5_CH3OH time=5.0 free_energy=-670.2687658139466 cutoff=8.0 nneightol=1.2 pbc="T T T"
C       -0.78808552       0.30347745      -0.01726950      -0.01055651      -0.24397781       0.15214617       0.27801500       0.06213913      -0.03637863
O       -0.19347519      -0.99047445      -0.13078056       0.88302482       0.70608064      -0.59884458       0.22946146      -0.10570919       0.24200701
H       -1.87690435       0.15435266       0.03468206       0.36769236       0.03634687       0.09026527      -0.08254095       0.05695658      -0.05948353
H        0.74892998      -0.99627501       0.17497037      -0.47288385      -0.30471476       0.48093729      -0.26602423      -0.18809404      -0.18357353
H       -0.48241882       0.86871657       0.88925493       0.14724989      -0.04209193      -0.05149219      -0.00533341       0.01010264       0.04533945
H       -0.57122276       0.91762783      -0.91267030      -0.07521088      -0.18029304      -0.03109141       0.13649050      -0.01729305       0.02987564
H        3.16317667      -0.25742505      -0.03818700      -0.83931582       0.02865003      -0.04192054      -0.29006836       0.18189792      -0.03778640
7
Lattice="13.0 0.0 0.0 0.0 9.0 0.0 0.0 0.0 9.0" Properties=species:S:1:pos:R:3:momenta:R:3:forces:R:3 EPS_SCF=1e-06 energy=-670.2744835821313 units=gap_units Integrated_spin_density=1.924e-05 opt_dir=/home/tks32/dft_pbe/apr_8_opt_fragments_subset/singlepoint_5_CH3OH time=5.0 free_energy=-670.2744835821313 cutoff=8.0 nneightol=1.2 pbc="T T T"
C       -0.78560961       0.30409374      -0.01760941      -0.01055651      -0.24397781       0.15214617       0.25061321       0.00828565       0.01067138
O       -0.19173013      -0.99249419      -0.12741633       0.88302482       0.70608064      -0.59884458      -0.04337050      -0.06427962       0.15749404
H       -1.87578866       0.15580313       0.03352211       0.36769236       0.03634687       0.09026527      -0.03995293       0.04911047      -0.06604726
H        0.74673599      -0.99966787       0.17270998      -0.47288385      -0.30471476       0.48093729      -0.03862897      -0.17618113      -0.10846040
H       -0.48226488       0.86879839       0.89019603       0.14724989      -0.04209193      -0.05149219      -0.00804637       0.01388657       0.03586643
H       -0.56862289       0.91749893      -0.91252303      -0.07521088      -0.18029304      -0.03109141       0.14117373      -0.00819074       0.00711565
H        3.15728018      -0.25403212      -0.03887934      -0.83931582       0.02865003      -0.04192054      -0.26178817       0.17736881      -0.03663983
7
Lattice="13.0 0.0 0.0 0.0 9.0 0.0 0.0 0.0 9.0" Properties=species:S:1:pos:R:3:momenta:R:3:forces:R:3 EPS_SCF=1e-06 energy=-670.2793555284788 units=gap_units Integrated_spin_density=1.924e-05 opt_dir=/home/tks32/dft_pbe/apr_8_opt_fragments_subset/singlepoint_5_CH3OH time=5.0 free_energy=-670.2793555284788 cutoff=8.0 nneightol=1.2 pbc="T T T"
C       -0.78203368       0.30474450      -0.01790089      -0.01055651      -0.24397781       0.15214617       0.16676007      -0.05123809       0.05916267
O       -0.19018318      -0.99479114      -0.12336726       0.88302482       0.70608064      -0.59884458      -0.32787983      -0.02669228       0.06906963
H       -1.87485372       0.15746572       0.03207406       0.36769236       0.03634687       0.09026527       0.03966755       0.04738133      -0.07390271
H        0.74437890      -1.00382817       0.16997775      -0.47288385      -0.30471476       0.48093729       0.20785481      -0.16541376      -0.03048794
H       -0.48214708       0.86894136       0.89129248       0.14724989      -0.04209193      -0.05149219      -0.00638742       0.02077333       0.03160850