7
Lattice="13.0 0.0 0.0 0.0 9.0 0.0 0.0 0.0 9.0" Properties=species:S:1:pos:R:3:momenta:R:3:forces:R:3 EPS_SCF=1e-06 energy=-671.2996064717755 units=gap_units Integrated_spin_density=1.924e-05 opt_dir=/home/tks32/dft_pbe/apr_8_opt_fragments_subset/singlepoint_5_CH3OH time=100.0 free_energy=-671.2996064717755 cutoff=8.0 nneightol=1.2 pbc="T T T"
C       -0.75997335       0.54233735      -0.03886634      -0.95661684       1.41859207      -0.24513355      -0.04254795       0.00057810      -0.02142292
O        1.01209316      -0.48085918       0.38988873       0.94487210      -2.80040685      -0.38449628       0.75426681      -0.70403560      -2.37379486
H       -1.41698946      -0.28731101      -0.36219919       0.13584996       0.29117309       0.37784442       0.01027547       0.37179441       0.02462005
H        0.77662647      -1.43239695       0.16762601      -0.27384847       0.14479709       0.54478918       0.41049171       0.06717402       0.58335327
H       -0.91243034       0.90340846       0.98751232      -0.23892894      -0.10255537      -0.04311373      -0.03470313       0.09415688       0.00310739
H       -0.47059780       1.28023477      -0.81392750       0.19695666       0.11375456       0.22506591      -0.13961111      -0.12838060       0.19308965
H        1.77127132      -0.52541344      -0.33003404       0.19171554       0.93464541      -0.47495594      -0.95817180       0.29871279       1.59104741
7
Lattice="13.0 0.0 0.0 0.0 9.0 0.0 0.0 0.0 9.0" Properties=species:S:1:pos:R:3:momenta:R:3:forces:R:3 EPS_SCF=1e-06 energy=-671.3809103168944 units=gap_units Integrated_spin_density=1.924e-05 opt_dir=/home/tks32/dft_pbe/apr_8_opt_fragments_subset/singlepoint_5_CH3OH time=100.0 free_energy=-671.3809103168944 cutoff=8.0 nneightol=1.2 pbc="T T T"
C       -0.76039883       0.54234313      -0.03908057      -0.95661684       1.41859207      -0.24513355      -0.21486290       0.15553275       0.04496189
O        1.01963583      -0.48789954       0.36615078       0.94487210      -2.80040685      -0.38449628       0.08049055      -0.37227155      -1.29193981
H       -1.41688671      -0.28359307      -0.36195299       0.13584996       0.29117309       0.37784442      -0.06846754       0.28285953      -0.00636259
H        0.78073139      -1.43172521       0.17345954      -0.27384847       0.14479709       0.54478918       0.30954439      -0.32069186       0.48633616
H       -0.91277737       0.90435003       0.98754339      -0.23892894      -0.10255537      -0.04311373      -0.03073973       0.07924011      -0.02127749
H       -0.47199391       1.27895096      -0.81199660       0.19695666       0.11375456       0.22506591      -0.10330749      -0.07072967       0.12717176
H        1.76168960      -0.52242631      -0.31412357       0.19171554       0.93464541      -0.47495594       0.02734273       0.24606069       0.66111009
7
Lattice="13.0 0.0 0.0 0.0 9.0 0.0 0.0 0.0 9.0" Properties=species:S:1:pos:R:3:momenta:R:3:forces:R:3 EPS_SCF=1e-06 energy=-671.4008814305778 units=gap_units Integrated_spin_density=1.924e-05 opt_dir=/home/tks32/dft_pbe/apr_8_opt_fragments_subset/singlepoint_5_CH3OH time=100.0 free_energy=-671.4008814305778 cutoff=8.0 nneightol=1.2 pbc="T T T"
C       -0.76334524       0.54420396      -0.03873695      -0.95661684       1.41859207      -0.24513355      -0.39593249       0.31112611       0.10789664
O        1.02738454      -0.49867734       0.32937280       0.94487210      -2.80040685      -0.38449628      -1.21079139       0.03212662       0.35597359
H       -1.41761110      -0.27687219      -0.36180732       0.13584996       0.29117309       0.37784442      -0.18929426       0.14475970      -0.04560987
H        0.78811891      -1.43494674       0.18451208      -0.27384847       0.14479709       0.54478918       0.22808600      -0.74631587       0.35212890
H       -0.91345645       0.90614284       0.98731750      -0.23892894      -0.10255537      -0.04311373      -0.04035273       0.08058272      -0.00685793
H       -0.47448295       1.27695168      -0.80874154       0.19695666       0.11375456       0.22506591      -0.05308249       0.04054166       0.02146149
H        1.75339228      -0.51680221      -0.29191659       0.19171554       0.93464541      -0.47495594       1.66136736       0.13717907      -0.78499282
7
Lattice="13.0 0.0 0.0 0.0 9.0 0.0 0.0 0.0 9.0" Properties=species:S:1:pos:R:3:momenta:R:3:forces:R:3 EPS_SCF=1e-06 energy=-671.4147302227689 units=gap_units Integrated_spin_density=1.924e-05 opt_dir=/home/tks32/dft_pbe/apr_8_opt_fragments_subset/singlepoint_5_CH3OH time=100.0 free_energy=-671.4147302227689 cutoff=8.0 nneightol=1.2 pbc="T T T"
C       -0.76433507       0.54498177      -0.03846720      -0.95661684       1.41859207      -0.24513355      -0.35475270       0.27150331       0.09114344
O        1.02435756      -0.49859702       0.33026273       0.94487210      -2.80040685      -0.38449628      -0.97725398       0.02079212       0.13207146
H       -1.41808433      -0.27651029      -0.36192134       0.13584996       0.29117309       0.37784442      -0.19122261       0.14588242      -0.04212953
H        0.78868913      -1.43681253       0.18539241      -0.27384847       0.14479709       0.54478918       0.23440852      -0.71024186       0.34685276
H       -0.91355733       0.90634429       0.98730036      -0.23892894      -0.10255537      -0.04311373      -0.04836366       0.09104923       0.01299613
H       -0.47461565       1.27705303      -0.80868789       0.19695666       0.11375456       0.22506591      -0.05880200       0.05031680       0.01936423
H        1.75754569      -0.51645926      -0.29387907       0.19171554       0.93464541      -0.47495594       1.39598642       0.13069799      -0.56029849
7
Lattice="13.0 0.0 0.0 0.0 9.0 0.0 0.0 0.0 9.0" Properties=species:S:1:pos:R:3:momenta:R:3:forces:R:3 EPS_SCF=1e-06 energy=-671.4338346605709 units=gap_units Integrated_spin_density=1.924e-05 opt_dir=/home/tks32/dft_pbe/apr_8_opt_fragments_subset/singlepoint_5_CH3OH time=100.0 free_energy=-671.4338346605709 cutoff=8.0 nneightol=1.2 pbc="T T T"
C       -0.76621911       0.54644193      -0.03796927      -0.95661684       1.41859207      -0.24513355      -0.27900740       0.20027588       0.06112929
O        1.01889730      -0.49846653       0.33143343       0.94487210      -2.80040685      -0.38449628      -0.57706916      -0.00790992      -0.25021039
H       -1.41904560      -0.27577616      -0.36214192       0.13584996       0.29117309       0.37784442      -0.19448679       0.14731517      -0.03566001
H        0.78985859      -1.44048018       0.18715577      -0.27384847       0.14479709       0.54478918       0.24782372      -0.63381600       0.33765347
H       -0.91378353       0.90678051       0.98732131      -0.23892894      -0.10255537      -0.04311373      -0.06253973       0.10926498       0.04754068
H       -0.47489972       1.27728512      -0.80858539       0.19695666       0.11375456       0.22506591      -0.06961237       0.06785384       0.01608277
H        1.76519207      -0.51578469      -0.29721396       0.19171554       0.93464541      -0.47495594       0.93489173       0.11701606      -0.17653581
7
Lattice="13.0 0.0 0.0 0.0 9.0 0.0 0.0 0.0 9.0" Properties=species:S:1:pos:R:3:momenta:R:3:forces:R:3 EPS_SCF=1e-06 energy=-671.4487552869376 units=gap_units Integrated_spin_density=1.924e-05 opt_dir=/home/tks32/dft_pbe/apr_8_opt_fragments_subset/singlepoint_5_CH3OH time=100.0 free_energy=-671.4487552869376 cutoff=8.0 nneightol=1.2 pbc="T T T"
C       -0.76882913       0.54841243      -0.03732078      -0.95661684       1.41859207      -0.24513355      -0.18268449       0.11355858       0.02494635
O        1.01209183      -0.49837500       0.33166704       0.94487210      -2.80040685      -0.38449628      -0.12327178      -0.06409341      -0.67953369
H       -1.42054814      -0.27463264      -0.36245730       0.13584996       0.29117309       0.37784442      -0.19844118       0.14733035      -0.02713152
H        0.79172329      -1.44585828       0.18984939      -0.27384847       0.14479709       0.54478918       0.26881461      -0.51164492       0.32640661
H       -0.91419206       0.90753120       0.98749598      -0.23892894      -0.10255537      -0.04311373      -0.07967472       0.13015683       0.08668743
H       -0.47538351       1.27771638      -0.80844043       0.19695666       0.11375456       0.22506591      -0.08405359       0.08941166       0.01314146
H        1.77513773      -0.51479409      -0.30079391       0.19171554       0.93464541      -0.47495594       0.39931114       0.09528090       0.25548336
7
Lattice="13.0 0.0 0.0 0.0 9.0 0.0 0.0 0.0 9.0" Properties=species:S:1:pos:R:3:momenta:R:3:forces:R:3 EPS_SCF=1e-06 energy=-671.4577910531997 units=gap_units Integrated_spin_density=1.924e-05 opt_dir=/home/tks32/dft_pbe/apr_8_opt_fragments_subset/singlepoint_5_CH3OH time=100.0 free_energy=-671.4577910531997 cutoff=8.0 nneightol=1.2 pbc="T T T"
C       -0.77186874       0.55061515      -0.03664284      -0.95661684       1.41859207      -0.24513355      -0.08935740       0.03618732      -0.00620466
O        1.00550092      -0.49853492       0.32930852       0.94487210      -2.80040685      -0.38449628       0.24853517      -0.15232130      -1.02061314
H       -1.42265057      -0.27304654      -0.36284370       0.13584996       0.29117309       0.37784442      -0.20284604       0.14362943      -0.01799515
H        0.79441770      -1.45263268       0.19350752      -0.27384847       0.14479709       0.54478918       0.29498738      -0.34978841       0.31394737
H       -0.91486093       0.90869884       0.98798087      -0.23892894      -0.10255537      -0.04311373      -0.09548059       0.14660510       0.11559295
H       -0.47613667       1.27844251      -0.80826028       0.19695666       0.11375456       0.22506591      -0.09938496       0.10967761       0.01217600
H        1.78559829      -0.51354237      -0.30305010       0.19171554       0.93464541      -0.47495594      -0.05645356       0.06601026       0.60309663
7
Lattice="13.0 0.0 0.0 0.0 9.0 0.0 0.0 0.0 9.0" Properties=species:S:1:pos:R:3:momenta:R:3:forces:R:3 EPS_SCF=1e-06 energy=-671.4671446491176 units=gap_units Integrated_spin_density=1.924e-05 opt_dir=/home/tks32/dft_pbe/apr_8_opt_fragments_subset/singlepoint_5_CH3OH time=100.0 free_energy=-671.4671446491176 cutoff=8.0 nneightol=1.2 pbc="T T T"
C       -0.77493043       0.55272965      -0.03605534      -0.95661684       1.41859207      -0.24513355      -0.02231840      -0.01084628      -0.02288136
O        1.00047594      -0.49923463       0.32346187       0.94487210      -2.80040685      -0.38449628       0.44966613      -0.25681354      -1.18401624
H       -1.42528289      -0.27109498      -0.36325713       0.13584996       0.29117309       0.37784442      -0.20739796       0.13563230      -0.00960015
H        0.79791901      -1.46000594       0.19794537      -0.27384847       0.14479709       0.54478918       0.31993306      -0.17767950       0.29875187
H       -0.91581130       0.91028465       0.98883905      -0.23892894      -0.10255537      -0.04311373      -0.10639868       0.15316860       0.12280695
H       -0.47717714       1.27949621      -0.80805373       0.19695666       0.11375456       0.22506591      -0.11255373       0.12411817       0.01392769
H        1.79480682      -0.51217496      -0.30288010       0.19171554       0.93464541      -0.47495594      -0.32093042       0.03242026       0.78101124
7
Lattice="13.0 0.0 0.0 0.0 9.0 0.0 0.0 0.0 9.0" Properties=species:S:1:pos:R:3:momenta:R:3:forces:R:3 EPS_SCF=1e-06 energy=-671.4824698816865 units=gap_units Integrated_spin_density=1.924e-05 opt_dir=/home/tks32/dft_pbe/apr_8_opt_fragments_subset/singlepoint_5_CH3OH time=100.0 free_energy=-671.4824698816865 cutoff=8.0 nneightol=1.2 pbc="T T T"
C       -0.77776364       0.55459493      -0.03560623      -0.95661684       1.41859207      -0.24513355       0.00732646      -0.02075221      -0.02235058
O        0.99751873      -0.50075832       0.31407839       0.94487210      -2.80040685      -0.38449628       0.47217816      -0.35297958      -1.16266340
H       -1.42837393      -0.26886644      -0.36366263       0.13584996       0.29117309       0.37784442      -0.21139216       0.12467454      -0.00227053
H        0.80218386      -1.46726036       0.20297937      -0.27384847       0.14479709       0.54478918       0.33842482      -0.02811900       0.27797673
H       -0.91703700       0.91224504       0.99003889      -0.23892894      -0.10255537      -0.04311373      -0.11113991       0.14841170       0.10540173
H       -0.47850536       1.28087659      -0.80781935       0.19695666       0.11375456       0.22506591      -0.12196574       0.13112485       0.01826999
H        1.80197735      -0.51083144      -0.30000844       0.19171554       0.93464541      -0.47495594      -0.37343163      -0.00236029       0.78563605
7
Lattice="13.0 0.0 0.0 0.0 9.0 0.0 0.0 0.0 9.0" Properties=species:S:1:pos:R:3:momenta:R:3:forces:R:3 EPS_SCF=1e-06 energy=-671.503856718458 units=gap_units Integrated_spin_density=1.924e-05 opt_dir=/home/tks32/dft_pbe/apr_8_opt_fragments_subset/singlepoint_5_CH3OH time=100.0 free_energy=-671.503856718458 cutoff=8.0 nneightol=1.2 pbc="T T T"
C       -0.78028769       0.55620051      -0.03528085      -0.95661684       1.41859207      -0.24513355      -0.00170789       0.00250602      -0.00757522
O        0.99652229      -0.50337436       0.30153332       0.94487210      -2.80040685      -0.38449628       0.33007193      -0.41540407      -0.97933172
H       -1.43190130      -0.26642112      -0.36403559       0.13584996       0.29117309       0.37784442      -0.21335089       0.11330931       0.00456496
H        0.80721562      -1.47388850       0.20849021      -0.27384847       0.14479709       0.54478918       0.34739013       0.07125341       0.24967409
H       -0.91853205       0.91453275       0.99149043      -0.23892894      -0.10255537      -0.04311373      -0.10994061       0.13368776       0.06690837
H       -0.48013085       1.28258132      -0.80754398       0.19695666       0.11375456       0.22506591      -0.12726480       0.13099964       0.02484631
H        1.80711398      -0.50963059      -0.29465355       0.19171554       0.93464541      -0.47495594      -0.22519787      -0.03635207       0.64091320
7
Lattice="13.0 0.0 0.0 0.0 9.0 0.0 0.0 0.0 9.0" Properties=species:S:1:pos:R:3:momenta:R:3:forces:R:3 EPS_SCF=1e-06 energy=-671.5290344902542 units=gap_units Integrated_spin_density=1.924e-05 opt_dir=/home/tks32/dft_pbe/apr_8_opt_fragments_subset/singlepoint_5_CH3OH time=100.0 free_energy=-671.5290344902542 cutoff=8.0 nneightol=1.2 pbc="T T T"
C       -0.78279420       0.55780132      -0.03499284      -0.95661684       1.41859207      -0.24513355      -0.04935933       0.05302084       0.01675723
O        0.99702197      -0.50783462       0.28470424       0.94487210      -2.80040685      -0.38449628       0.01528064      -0.41573612      -0.63807891
H       -1.43635401      -0.26349007      -0.36438426       0.13584996       0.29117309       0.37784442      -0.21060915       0.10409156       0.01294976
H        0.81376119      -1.48012954       0.21507010      -0.27384847       0.14479709       0.54478918       0.34322155       0.09594224       0.20990101
H       -0.92050716       0.91739951       0.99322871      -0.23892894      -0.10255537      -0.04311373      -0.10311769       0.10954719       0.00947723
H       -0.48231310       1.28485883      -0.80715950       0.19695666       0.11375456       0.22506591      -0.12905725       0.12423226       0.03428132
H        1.81118529      -0.50860543      -0.28646647       0.19171554       0.93464541      -0.47495594       0.13364123      -0.07109797       0.35471234
7
Lattice="13.0 0.0 0.0 0.0 9.0 0.0 0.0 0.0 9.0" Properties=species:S:1:pos:R:3:momenta:R:3:forces:R:3 EPS_SCF=1e-06 energy=-671.5513976450402 units=gap_units Integrated_spin_density=1.924e-05 opt_dir=/home/tks32/dft_pbe/apr_8_opt_fragments_subset/singlepoint_5_CH3OH time=100.0 free_energy=-671.5513976450402 cutoff=8.0 nneightol=1.2 pbc="T T T"
C       -0.78558697       0.55971935      -0.03460262      -0.95661684       1.41859207      -0.24513355      -0.12153033       0.10753994       0.03580092
O        0.99761274      -0.51485420       0.26403590       0.94487210      -2.80040685      -0.38449628      -0.36990913      -0.30014869      -0.24188460
H       -1.44208374      -0.25993437      -0.36464888       0.13584996       0.29117309       0.37784442      -0.19830456       0.10284374       0.02555081
H        0.82239420      -1.48571524       0.22290366      -0.27384847       0.14479709       0.54478918       0.31567570      -0.00138084       0.16127213
H       -0.92310934       0.92092560       0.99501077      -0.23892894      -0.10255537      -0.04311373      -0.09273865       0.08131633      -0.05181479
H       -0.48528274       1.28789273      -0.80656412       0.19695666       0.11375456       0.22506591      -0.12916579       0.11287933       0.04636847
H        1.81605585      -0.50803387      -0.27613472       0.19171554       0.93464541      -0.47495594       0.59597277      -0.10304981       0.02470706
7
Lattice="13.0 0.0 0.0 0.0 9.0 0.0 0.0 0.0 9.0" Properties=species:S:1:pos:R:3:momenta:R:3:forces:R:3 EPS_SCF=1e-06 energy=-671.5724138679194 units=gap_units Integrated_spin_density=1.924e-05 opt_dir=/home/tks32/dft_pbe/apr_8_opt_fragments_subset/singlepoint_5_CH3OH time=100.0 free_energy=-671.5724138679194 cutoff=8.0 nneightol=1.2 pbc="T T T"
C       -0.78930299       0.56245866      -0.03393705      -0.95661684       1.41859207      -0.24513355      -0.17120488       0.12271177       0.02819406
O        0.99532234      -0.52415302       0.24164802       0.94487210      -2.80040685      -0.38449628      -0.53652792      -0.06152239      -0.02728357
H       -1.44931081      -0.25560669      -0.36471273       0.13584996       0.29117309       0.37784442      -0.17502668       0.11261104       0.04376176
H        0.83341460      -1.49126805       0.23193014      -0.27384847       0.14479709       0.54478918       0.25819994      -0.20837843       0.11821223
H       -0.92641237       0.92505650       0.99637598      -0.23892894      -0.10255537      -0.04311373      -0.08492839       0.06013167      -0.08965293
H       -0.48923363       1.29178072      -0.80561281       0.19695666       0.11375456       0.22506591      -0.13289278       0.10249317       0.05899133
H        1.82552286      -0.50826813      -0.26569155       0.19171554       0.93464541      -0.47495594       0.84238069      -0.12804683      -0.13222287
7
Lattice="13.0 0.0 0.0 0.0 9.0 0.0 0.0 0.0 9.0" Properties=species:S:1:pos:R:3:momenta:R:3:forces:R:3 EPS_SCF=1e-06 energy=-671.5992677557236 units=gap_units Integrated_spin_density=1.924e-05 opt_dir=/home/tks32/dft_pbe/apr_8_opt_fragments_subset/singlepoint_5_CH3OH time=100.0 free_energy=-671.5992677557236 cutoff=8.0 nneightol=1.2 pbc="T T T"
C       -0.79446174       0.56623155      -0.03303426      -0.95661684       1.41859207      -0.24513355      -0.14979409       0.07495441      -0.00993903
O        0.98844768      -0.53391667       0.21917697       0.94487210      -2.80040685      -0.38449628      -0.27641670       0.17131222      -0.12516338
H       -1.45798973      -0.25034272      -0.36440098       0.13584996       0.29117309       0.37784442      -0.14811375       0.12676089       0.06358635
H        0.84657435      -1.49856990       0.24190928      -0.27384847       0.14479709       0.54478918       0.18500975      -0.37680314       0.09502312
H       -0.93042125       0.92967510       0.99696339      -0.23892894      -0.10255537      -0.04311373      -0.08317664       0.05185817      -0.08982931
H       -0.49429721       1.29652121      -0.80416217       0.19695666       0.11375456       0.22506591      -0.14405437       0.09658501       0.06838221
H        1.84214790      -0.50959856      -0.25645224       0.19171554       0.93464541      -0.47495594       0.61654580      -0.14466756      -0.00205995
7
Lattice="13.0 0.0 0.0 0.0 9.0 0.0 0.0 0.0 9.0" Properties=species:S:1:pos:R:3:momenta:R:3:forces:R:3 EPS_SCF=1e-06 energy=-671.6258119499549 units=gap_units Integrated_spin_density=1.924e-05 opt_dir=/home/tks32/dft_pbe/apr_8_opt_fragments_subset/singlepoint_5_CH3OH time=100.0 free_energy=-671.6258119499549 cutoff=8.0 nneightol=1.2 pbc="T T T"
C       -0.80125081       0.57081347      -0.03224669      -0.95661684       1.41859207      -0.24513355      -0.03885745      -0.01943158      -0.05561201
O        0.97854959      -0.54172706       0.19544657       0.94487210      -2.80040685      -0.38449628       0.29228072       0.13260132      -0.39704259
H       -1.46826041      -0.24370422      -0.36338654       0.13584996       0.29117309       0.37784442      -0.13215464       0.13012625       0.07480031
H        0.86170924      -1.51000493       0.25288463      -0.27384847       0.14479709       0.54478918       0.12162947      -0.24342242       0.07791366
H       -0.93532892       0.93484206       0.99655228      -0.23892894      -0.10255537      -0.04311373      -0.08325376       0.05090404      -0.06120771
H       -0.50092806       1.30230490      -0.80196216       0.19695666       0.11375456       0.22506591      -0.15912552       0.09287308       0.06862046
H        1.86550936      -0.51252421      -0.24728810       0.19171554       0.93464541      -0.47495594      -0.00051882      -0.14365069       0.29252788
7
Lattice="13.0 0.0 0.0 0.0 9.0 0.0 0.0 0.0 9.0" Properties=species:S:1:pos:R:3:momenta:R:3:forces:R:3 EPS_SCF=1e-06 energy=-671.6450565107987 units=gap_units Integrated_spin_density=1.924e-05 opt_dir=/home/tks32/dft_pbe/apr_8_opt_fragments_subset/singlepoint_5_CH3OH time=100.0 free_energy=-671.6450565107987 cutoff=8.0 nneightol=1.2 pbc="T T T"
C       -0.80857153       0.57509275      -0.03226843      -0.95661684       1.41859207      -0.24513355       0.09056028      -0.07963934      -0.04985527
O        0.97293152      -0.54758040       0.16607341       0.94487210      -2.80040685      -0.38449628       0.58214604      -0.31302831      -0.44532561
H       -1.48039834      -0.23521111      -0.36129311       0.13584996       0.29117309       0.37784442      -0.13890760       0.10801354       0.06431540
H        0.87853648      -1.52491383       0.26493817      -0.27384847       0.14479709       0.54478918       0.07608232       0.26884979       0.02544909
H       -0.94142010       0.94072267       0.99525631      -0.23892894      -0.10255537      -0.04311373      -0.06777730       0.03414290      -0.04921953
H       -0.50983367       1.30940742      -0.79877815       0.19695666       0.11375456       0.22506591      -0.16051608       0.08201507       0.05215235
H        1.88875564      -0.51751750      -0.23392822       0.19171554       0.93464541      -0.47495594      -0.38158765      -0.10035365       0.40248357
7
Lattice="13.0 0.0 0.0 0.0 9.0 0.0 0.0 0.0 9.0" Properties=species:S:1:pos:R:3:momenta:R:3:forces:R:3 EPS_SCF=1e-06 energy=-671.6660337099194 units=gap_units Integrated_spin_density=1.924e-05 opt_dir=/home/tks32/dft_pbe/apr_8_opt_fragments_subset/singlepoint_5_CH3OH time=100.0 free_energy=-671.6660337099194 cutoff=8.0 nneightol=1.2 pbc="T T T"
C       -0.81453629       0.57818729      -0.03302222      -0.95661684       1.41859207      -0.24513355       0.12381997      -0.06497215       0.00492946
O        0.97588233      -0.55800973       0.13026526       0.94487210      -2.80040685      -0.38449628       0.34754858      -0.61910455      -0.21200299
H       -1.49453289      -0.22516208      -0.35826266       0.13584996       0.29117309       0.37784442      -0.14148427       0.07980113       0.04146291
H        0.89642103      -1.53582152       0.27732249      -0.27384847       0.14479709       0.54478918       0.01840757       0.58285172      -0.03920104
H       -0.94848490       0.94708372       0.99324217      -0.23892894      -0.10255537      -0.04311373      -0.02384880      -0.00841047      -0.06866527
H       -0.52106474       1.31768903      -0.79483963       0.19695666       0.11375456       0.22506591      -0.13584109       0.05735839       0.02335472
H        1.90631545      -0.52396670      -0.21470543       0.19171554       0.93464541      -0.47495594      -0.18860197      -0.02752406       0.25012220
7
Lattice="13.0 0.0 0.0 0.0 9.0 0.0 0.0 0.0 9.0" Properties=species:S:1:pos:R:3:momenta:R:3:forces:R:3 EPS_SCF=1e-06 energy=-671.687386371241 units=gap_units Integrated_spin_density=1.924e-05 opt_dir=/home/tks32/dft_pbe/apr_8_opt_fragments_subset/singlepoint_5_CH3OH time=100.0 free_energy=-671.687386371241 cutoff=8.0 nneightol=1.2 pbc="T T T"
C       -0.81834924       0.58015279      -0.03368903      -0.95661684       1.41859207      -0.24513355       0.02389878      -0.01593597       0.02675800
O        0.98482323      -0.57909643       0.09088912       0.94487210      -2.80040685      -0.38449628      -0.11632157      -0.20780684      -0.02677118
H       -1.51107327      -0.21376134      -0.35452435       0.13584996       0.29117309       0.37784442      -0.09769953       0.07060136       0.02807388
H        0.91457804      -1.53664354       0.28899902      -0.27384847       0.14479709       0.54478918      -0.07126716       0.15789433       0.00625836
H       -0.95594340       0.95328356       0.99004819      -0.23892894      -0.10255537      -0.04311373       0.04684071      -0.06128102      -0.07052879
H       -0.53461161       1.32693954      -0.79050803       0.19695666       0.11375456       0.22506591      -0.08579467       0.01270280      -0.00302415
H        1.92057624      -0.53087458      -0.19121493       0.19171554       0.93464541      -0.47495594       0.30034343       0.04382534       0.03923389
7
Lattice="13.0 0.0 0.0 0.0 9.0 0.0 0.0 0.0 9.0" Properties=species:S:1:pos:R:3:momenta:R:3:forces:R:3 EPS_SCF=1e-06 energy=-671.6914026071098 units=gap_units Integrated_spin_density=1.924e-05 opt_dir=/home/tks32/dft_pbe/apr_8_opt_fragments_subset/singlepoint_5_CH3OH time=100.0 free_energy=-671.6914026071098 cutoff=8.0 nneightol=1.2 pbc="T T T"
C       -0.82148746       0.58166924      -0.03360581      -0.95661684       1.41859207      -0.24513355      -0.07602072      -0.02520138      -0.08418834
O        0.99049449      -0.60596865       0.05082272       0.94487210      -2.80040685      -0.38449628       0.05973640       0.65342074      -0.20401250
H       -1.53032374      -0.20040136      -0.35000578       0.13584996       0.29117309       0.37784442      -0.01500682       0.07041378       0.02754241
H        0.93071279      -1.53304434       0.30083321      -0.27384847       0.14479709       0.54478918      -0.16905874      -0.62240890       0.18478315
H       -0.96207947       0.95775863       0.98488467      -0.23892894      -0.10255537      -0.04311373       0.12601960      -0.08710620       0.03097508
H       -0.55053979       1.33653174      -0.78626759       0.19695666       0.11375456       0.22506591      -0.01860138      -0.05653573      -0.01157665
H        1.94322319      -0.53654527      -0.16666143       0.19171554       0.93464541      -0.47495594       0.09293167       0.06741769       0.05647685
7
Lattice="13.0 0.0 0.0 0.0 9.0 0.0 0.0 0.0 9.0" Properties=species:S:1:pos:R:3:momenta:R:3:forces:R:3 EPS_SCF=1e-06 energy=-671.6942854936142 units=gap_units Integrated_spin_density=1.924e-05 opt_dir=/home/tks32/dft_pbe/apr_8_opt_fragments_subset/singlepoint_5_CH3OH time=100.0 free_energy=-671.6942854936142 cutoff=8.0 nneightol=1.2 pbc="T T T"
C       -0.82175163       0.58158167      -0.03389836      -0.95661684       1.41859207      -0.24513355      -0.05344805      -0.02344163      -0.06564057
O        0.99070207      -0.60369804       0.05011378       0.94487210      -2.80040685      -0.38449628       0.01695160       0.43365174      -0.13892857
H       -1.53037589      -0.20015667      -0.34991007       0.13584996       0.29117309       0.37784442      -0.02935561       0.06061649       0.02101173
H        0.93012532      -1.53520718       0.30147532      -0.27384847       0.14479709       0.54478918      -0.15259685      -0.40309718       0.12531366
H       -0.96164156       0.95745595       0.98499230      -0.23892894      -0.10255537      -0.04311373       0.12509010      -0.08743042       0.02336765
H       -0.55060443       1.33633528      -0.78630782       0.19695666       0.11375456       0.22506591      -0.01914178      -0.05139860      -0.01621769
H        1.94354612      -0.53631100      -0.16646517       0.19171554       0.93464541      -0.47495594       0.11250060       0.07109960       0.05109378
7
Lattice="13.0 0.0 0.0 0.0 9.0 0.0 0.0 0.0 9.0" Properties=species:S:1:pos:R:3:momenta:R:3:forces:R:3 EPS_SCF=1e-06 energy=-671.6968005646311 units=gap_units Integrated_spin_density=1.924e-05 opt_dir=/home/tks32/dft_pbe/apr_8_opt_fragments_subset/singlepoint_5_CH3OH time=100.0 free_energy=-671.6968005646311 cutoff=8.0 nneightol=1.2 pbc="T T T"
C       -0.82220203       0.58140958      -0.03442282      -0.95661684       1.41859207      -0.24513355      -0.01487410      -0.02126420      -0.03425328
O        0.99095634      -0.59992912       0.04892299       0.94487210      -2.80040685      -0.38449628      -0.04281249       0.07948398      -0.03610831
H       -1.53053962      -0.19969528      -0.34974033       0.13584996       0.29117309       0.37784442      -0.05397430       0.04357156       0.00995051
H        0.92898945      -1.53875754       0.30255181      -0.27384847       0.14479709       0.54478918      -0.12377066      -0.04678037       0.02817346
H       -0.96074974       0.95683566       0.98518215      -0.23892894      -0.10255537      -0.04311373       0.12341086      -0.08753757       0.01089275