7
Lattice="13.0 0.0 0.0 0.0 9.0 0.0 0.0 0.0 9.0" Properties=species:S:1:pos:R:3:momenta:R:3:forces:R:3 EPS_SCF=1e-06 energy=-671.3278595184834 units=gap_units Integrated_spin_density=1.924e-05 opt_dir=/home/tks32/dft_pbe/apr_8_opt_fragments_subset/singlepoint_5_CH3OH time=110.0 free_energy=-671.3278595184834 cutoff=8.0 nneightol=1.2 pbc="T T T"
C       -0.82918911       0.63845196      -0.03311288      -0.99026124       1.96148420      -0.86185399       0.13599641       0.66442137      -0.48953065
O        1.03237052      -0.79166861       0.42728599       0.52106904      -2.07322543      -0.45735917       1.62387025       0.28837731      -2.57915687
H       -1.57066575      -0.12837276      -0.27439795      -0.10467008       0.23693975       0.08737419       0.01316331      -0.12450058      -0.06856369
H        0.91082444      -1.64874340      -0.04411651       0.02890632      -1.02985606       0.25251465       0.03352272       0.67651663       0.68605171
H       -0.81077671       1.01611234       0.99540596      -0.41071778      -0.14988528       0.11962937       0.13770255      -0.04629708      -0.06971087
H       -0.46174291       1.30096716      -0.85348279       0.27297357       0.40710170       0.51635209      -0.20141793      -0.55684867       0.69331830
H        1.72917952      -0.38674669      -0.21758182       0.68270018       0.64744112       0.34334286      -1.74283730      -0.90166899       1.82759207
7
Lattice="13.0 0.0 0.0 0.0 9.0 0.0 0.0 0.0 9.0" Properties=species:S:1:pos:R:3:momenta:R:3:forces:R:3 EPS_SCF=1e-06 energy=-671.4486839582813 units=gap_units Integrated_spin_density=1.924e-05 opt_dir=/home/tks32/dft_pbe/apr_8_opt_fragments_subset/singlepoint_5_CH3OH time=110.0 free_energy=-671.4486839582813 cutoff=8.0 nneightol=1.2 pbc="T T T"
C       -0.82782915       0.64509617      -0.03800819      -0.99026124       1.96148420      -0.86185399      -0.39949075       0.23922530       0.00717221
O        1.04860922      -0.78878484       0.40149442       0.52106904      -2.07322543      -0.45735917       0.28479908      -0.05000845      -0.81778988
H       -1.57053412      -0.12961777      -0.27508359      -0.10467008       0.23693975       0.08737419       0.17185392       0.02909733      -0.04711482
H        0.91115967      -1.64197823      -0.03725599       0.02890632      -1.02985606       0.25251465       0.00856291       0.09308288       0.32989879
H       -0.80939968       1.01564937       0.99470885      -0.41071778      -0.14988528       0.11962937       0.15303474      -0.03372192      -0.15160592
H       -0.46375709       1.29539867      -0.84654961       0.27297357       0.40710170       0.51635209      -0.01140568      -0.16602834       0.23521062
H        1.71175115      -0.39576338      -0.19930590       0.68270018       0.64744112       0.34334286      -0.20735421      -0.11164679       0.44422899
7
Lattice="13.0 0.0 0.0 0.0 9.0 0.0 0.0 0.0 9.0" Properties=species:S:1:pos:R:3:momenta:R:3:forces:R:3 EPS_SCF=1e-06 energy=-671.3816065767381 units=gap_units Integrated_spin_density=1.924e-05 opt_dir=/home/tks32/dft_pbe/apr_8_opt_fragments_subset/singlepoint_5_CH3OH time=110.0 free_energy=-671.3816065767381 cutoff=8.0 nneightol=1.2 pbc="T T T"
C       -0.83202316       0.65432039      -0.04231669      -0.99026124       1.96148420      -0.86185399      -0.85947774      -0.20087583       0.50115652
O        1.06708656      -0.78686767       0.36719097       0.52106904      -2.07322543      -0.45735917      -2.26944127      -0.89440553       2.12715227
H       -1.56808493      -0.13034365      -0.27633964      -0.10467008       0.23693975       0.08737419       0.24705376       0.11787321      -0.03567746
H        0.91157750      -1.63462717      -0.02660737       0.02890632      -1.02985606       0.25251465      -0.00940700      -0.69529847      -0.16001698
H       -0.80608487       1.01477535       0.99202534      -0.41071778      -0.14988528       0.11962937       0.15072671       0.00405595      -0.14612503
H       -0.46572454       1.28813532      -0.83711977       0.27297357       0.40710170       0.51635209       0.20520242       0.28831703      -0.30352531
H        1.69325343      -0.40539258      -0.17683284       0.68270018       0.64744112       0.34334286       2.53534311       1.38033365      -1.98296400
7
Lattice="13.0 0.0 0.0 0.0 9.0 0.0 0.0 0.0 9.0" Properties=species:S:1:pos:R:3:momenta:R:3:forces:R:3 EPS_SCF=1e-06 energy=-671.4299486121658 units=gap_units Integrated_spin_density=1.924e-05 opt_dir=/home/tks32/dft_pbe/apr_8_opt_fragments_subset/singlepoint_5_CH3OH time=110.0 free_energy=-671.4299486121658 cutoff=8.0 nneightol=1.2 pbc="T T T"
C       -0.83417185       0.65381820      -0.04106380      -0.99026124       1.96148420      -0.86185399      -0.70970069      -0.10215795       0.36923976
O        1.06141296      -0.78910368       0.37250885       0.52106904      -2.07322543      -0.45735917      -1.28042690      -0.30700880       1.22887682
H       -1.56746729      -0.13004896      -0.27642883      -0.10467008       0.23693975       0.08737419       0.18555214       0.06825608      -0.04181882
H        0.91155399      -1.63636542      -0.02700741       0.02890632      -1.02985606       0.25251465      -0.01014032      -0.66266855      -0.14011497
H       -0.80570806       1.01478549       0.99166003      -0.41071778      -0.14988528       0.11962937       0.13608749       0.01151951      -0.09747042
H       -0.46521153       1.28885612      -0.83787858       0.27297357       0.40710170       0.51635209       0.16155075       0.20879499      -0.20950417
H        1.69959179      -0.40194174      -0.18179025       0.68270018       0.64744112       0.34334286       1.51707753       0.78326472      -1.10920820
7
Lattice="13.0 0.0 0.0 0.0 9.0 0.0 0.0 0.0 9.0" Properties=species:S:1:pos:R:3:momenta:R:3:forces:R:3 EPS_SCF=1e-06 energy=-671.4642655077072 units=gap_units Integrated_spin_density=1.924e-05 opt_dir=/home/tks32/dft_pbe/apr_8_opt_fragments_subset/singlepoint_5_CH3OH time=110.0 free_energy=-671.4642655077072 cutoff=8.0 nneightol=1.2 pbc="T T T"
C       -0.83817870       0.65306783      -0.03885765      -0.99026124       1.96148420      -0.86185399      -0.44486377       0.06925273       0.14058783
O        1.05256660      -0.79201286       0.38088448       0.52106904      -2.07322543      -0.45735917      -0.24274887       0.24509300       0.22887450
H       -1.56636943      -0.12958437      -0.27663126      -0.10467008       0.23693975       0.08737419       0.07810999      -0.01973389      -0.05257329
H        0.91150320      -1.63986549      -0.02777673       0.02890632      -1.02985606       0.25251465      -0.00053403      -0.54554892      -0.08085173
H       -0.80497141       1.01482827       0.99104654      -0.41071778      -0.14988528       0.11962937       0.11105120       0.02358091      -0.01321659
H       -0.46427794       1.29011472      -0.83917347       0.27297357       0.40710170       0.51635209       0.08415753       0.07190105      -0.04722473
H        1.70972768      -0.39654808      -0.18949191       0.68270018       0.64744112       0.34334286       0.41482795       0.15545512      -0.17559599
7
Lattice="13.0 0.0 0.0 0.0 9.0 0.0 0.0 0.0 9.0" Properties=species:S:1:pos:R:3:momenta:R:3:forces:R:3 EPS_SCF=1e-06 energy=-671.4618490249474 units=gap_units Integrated_spin_density=1.924e-05 opt_dir=/home/tks32/dft_pbe/apr_8_opt_fragments_subset/singlepoint_5_CH3OH time=110.0 free_energy=-671.4618490249474 cutoff=8.0 nneightol=1.2 pbc="T T T"
C       -0.84379150       0.65270487      -0.03623798      -0.99026124       1.96148420      -0.86185399      -0.12371974       0.26375732      -0.12253788
O        1.04350992      -0.79352560       0.38945492       0.52106904      -2.07322543      -0.45735917       0.54996087       0.51264733      -0.65154333
H       -1.56502902      -0.12925526      -0.27705058      -0.10467008       0.23693975       0.08737419      -0.04944822      -0.12317444      -0.06412305
H        0.91145508      -1.64547633      -0.02883380       0.02890632      -1.02985606       0.25251465       0.03363203      -0.26667563       0.05001854
H       -0.80380752       1.01497313       0.99043478      -0.41071778      -0.14988528       0.11962937       0.08038140       0.03544307       0.08349761
H       -0.46305810       1.29157178      -0.84055189       0.27297357       0.40710170       0.51635209      -0.00840093      -0.08402447       0.13815161
H        1.72072113      -0.39099259      -0.19721545       0.68270018       0.64744112       0.34334286      -0.48240541      -0.33797320       0.56653651
7
Lattice="13.0 0.0 0.0 0.0 9.0 0.0 0.0 0.0 9.0" Properties=species:S:1:pos:R:3:momenta:R:3:forces:R:3 EPS_SCF=1e-06 energy=-671.4630010201232 units=gap_units Integrated_spin_density=1.924e-05 opt_dir=/home/tks32/dft_pbe/apr_8_opt_fragments_subset/singlepoint_5_CH3OH time=110.0 free_energy=-671.4630010201232 cutoff=8.0 nneightol=1.2 pbc="T T T"
C       -0.84386882       0.65286971      -0.03631456      -0.99026124       1.96148420      -0.86185399      -0.13104940       0.25560910      -0.11396237
O        1.04385365      -0.79320520       0.38904771       0.52106904      -2.07322543      -0.45735917       0.51308970       0.47731164      -0.62717449
H       -1.56505993      -0.12933224      -0.27709066      -0.10467008       0.23693975       0.08737419      -0.04600549      -0.11903275      -0.06312907
H        0.91147610      -1.64564300      -0.02880254       0.02890632      -1.02985606       0.25251465       0.03645758      -0.25141140       0.05638521
H       -0.80375728       1.01499528       0.99048697      -0.41071778      -0.14988528       0.11962937       0.08023979       0.03476237       0.08015374
H       -0.46306335       1.29151926      -0.84046554       0.27297357       0.40710170       0.51635209      -0.00571189      -0.07866087       0.13175238
H        1.72041962      -0.39120382      -0.19686137       0.68270018       0.64744112       0.34334286      -0.44702028      -0.31857808       0.53597460
7
Lattice="13.0 0.0 0.0 0.0 9.0 0.0 0.0 0.0 9.0" Properties=species:S:1:pos:R:3:momenta:R:3:forces:R:3 EPS_SCF=1e-06 energy=-671.4650574724741 units=gap_units Integrated_spin_density=1.924e-05 opt_dir=/home/tks32/dft_pbe/apr_8_opt_fragments_subset/singlepoint_5_CH3OH time=110.0 free_energy=-671.4650574724741 cutoff=8.0 nneightol=1.2 pbc="T T T"
C       -0.84402898       0.65319473      -0.03646225      -0.99026124       1.96148420      -0.86185399      -0.14513830       0.23981045      -0.09736680
O        1.04451759      -0.79258696       0.38824778       0.52106904      -2.07322543      -0.45735917       0.44120753       0.40897527      -0.57930505
H       -1.56511953      -0.12948379      -0.27717036      -0.10467008       0.23693975       0.08737419      -0.03936630      -0.11099289      -0.06118449
H        0.91152022      -1.64596676      -0.02873544       0.02890632      -1.02985606       0.25251465       0.04193887      -0.22215575       0.06845540
H       -0.80365661       1.01503924       0.99058933      -0.41071778      -0.14988528       0.11962937       0.07992172       0.03343497       0.07367404
H       -0.46307202       1.29141764      -0.84029678       0.27297357       0.40710170       0.51635209      -0.00052090      -0.06826558       0.11934753
H        1.71983933      -0.39161410      -0.19617228       0.68270018       0.64744112       0.34334286      -0.37804262      -0.28080648       0.47637937
7
Lattice="13.0 0.0 0.0 0.0 9.0 0.0 0.0 0.0 9.0" Properties=species:S:1:pos:R:3:momenta:R:3:forces:R:3 EPS_SCF=1e-06 energy=-671.4675809876912 units=gap_units Integrated_spin_density=1.924e-05 opt_dir=/home/tks32/dft_pbe/apr_8_opt_fragments_subset/singlepoint_5_CH3OH time=110.0 free_energy=-671.4675809876912 cutoff=8.0 nneightol=1.2 pbc="T T T"
C       -0.84428483       0.65367180      -0.03667010      -0.99026124       1.96148420      -0.86185399      -0.16484435       0.21734455      -0.07385610
O        1.04545471      -0.79171580       0.38708199       0.52106904      -2.07322543      -0.45735917       0.33811191       0.31235976      -0.50972590
H       -1.56520348      -0.12970560      -0.27728918      -0.10467008       0.23693975       0.08737419      -0.03002048      -0.09953043      -0.05836953
H        0.91159220      -1.64642911      -0.02862236       0.02890632      -1.02985606       0.25251465       0.04972905      -0.18147594       0.08490789
H       -0.80350450       1.01510454       0.99073815      -0.41071778      -0.14988528       0.11962937       0.07934883       0.03152701       0.06446926
H       -0.46308023       1.29127364      -0.84005304       0.27297357       0.40710170       0.51635209       0.00679701      -0.05349608       0.10171799
H        1.71902613      -0.39219946      -0.19518547       0.68270018       0.64744112       0.34334286      -0.27912197      -0.22672887       0.39085639
7
Lattice="13.0 0.0 0.0 0.0 9.0 0.0 0.0 0.0 9.0" Properties=species:S:1:pos:R:3:momenta:R:3:forces:R:3 EPS_SCF=1e-06 energy=-671.4700498198039 units=gap_units Integrated_spin_density=1.924e-05 opt_dir=/home/tks32/dft_pbe/apr_8_opt_fragments_subset/singlepoint_5_CH3OH time=110.0 free_energy=-671.4700498198039 cutoff=8.0 nneightol=1.2 pbc="T T T"
C       -0.84465941       0.65429145      -0.03692183      -0.99026124       1.96148420      -0.86185399      -0.18845416       0.18965527      -0.04507259
O        1.04659412      -0.79065828       0.38558653       0.52106904      -2.07322543      -0.45735917       0.20969188       0.19464487      -0.42128928
H       -1.56530531      -0.12999238      -0.27744721      -0.10467008       0.23693975       0.08737419      -0.01869479      -0.08533207      -0.05479027
H        0.91170052      -1.64700411      -0.02844625       0.02890632      -1.02985606       0.25251465       0.05929443      -0.13323923       0.10379090
H       -0.80329813       1.01519091       0.99092854      -0.41071778      -0.14988528       0.11962937       0.07838566       0.02913341       0.05314295
H       -0.46308166       1.29109720      -0.83974462       0.27297357       0.40710170       0.51635209       0.01567850      -0.03532463       0.08002111
H        1.71804987      -0.39292479      -0.19395515       0.68270018       0.64744112       0.34334286      -0.15590153      -0.15953762       0.28419718
7
Lattice="13.0 0.0 0.0 0.0 9.0 0.0 0.0 0.0 9.0" Properties=species:S:1:pos:R:3:momenta:R:3:forces:R:3 EPS_SCF=1e-06 energy=-671.4719942982782 units=gap_units Integrated_spin_density=1.924e-05 opt_dir=/home/tks32/dft_pbe/apr_8_opt_fragments_subset/singlepoint_5_CH3OH time=110.0 free_energy=-671.4719942982782 cutoff=8.0 nneightol=1.2 pbc="T T T"
C       -0.84519216       0.65504601      -0.03719517      -0.99026124       1.96148420      -0.86185399      -0.21360027       0.15866668      -0.01324883
O        1.04783727      -0.78950446       0.38380329       0.52106904      -2.07322543      -0.45735917       0.06441395       0.06588172      -0.31823770
H       -1.56541637      -0.13033905      -0.27764632      -0.10467008       0.23693975       0.08737419      -0.00637544      -0.06929045      -0.05056466
H        0.91185955      -1.64765992      -0.02818002       0.02890632      -1.02985606       0.25251465       0.06988632      -0.08277168       0.12247876
H       -0.80303103       1.01529888       0.99115505      -0.41071778      -0.14988528       0.11962937       0.07681011       0.02637597       0.04050166
H       -0.46306668       1.29090174      -0.83938398       0.27297357       0.40710170       0.51635209       0.02534558      -0.01506258       0.05582288
H        1.71700941      -0.39374319      -0.19255285       0.68270018       0.64744112       0.34334286      -0.01648026      -0.08379966       0.16324789
7
Lattice="13.0 0.0 0.0 0.0 9.0 0.0 0.0 0.0 9.0" Properties=species:S:1:pos:R:3:momenta:R:3:forces:R:3 EPS_SCF=1e-06 energy=-671.4731518232381 units=gap_units Integrated_spin_density=1.924e-05 opt_dir=/home/tks32/dft_pbe/apr_8_opt_fragments_subset/singlepoint_5_CH3OH time=110.0 free_energy=-671.4731518232381 cutoff=8.0 nneightol=1.2 pbc="T T T"
C       -0.84594816       0.65593053      -0.03745834      -0.99026124       1.96148420      -0.86185399      -0.23686626       0.12706618       0.01842880
O        1.04903950      -0.78838074       0.38178638       0.52106904      -2.07322543      -0.45735917      -0.08474227      -0.05923186      -0.20748553
H       -1.56552457      -0.13074076      -0.27789098      -0.10467008       0.23693975       0.08737419       0.00554137      -0.05262473      -0.04582892
H        0.91209316      -1.64835731      -0.02778184       0.02890632      -1.02985606       0.25251465       0.08041140      -0.03759038       0.13739629
H       -0.80269120       1.01543020       0.99141135      -0.41071778      -0.14988528       0.11962937       0.07426425       0.02342035       0.02767857
H       -0.46302038       1.29070632      -0.83898713       0.27297357       0.40710170       0.51635209       0.03467206       0.00542843       0.03135517
H        1.71605165      -0.39458825      -0.19107944       0.68270018       0.64744112       0.34334286       0.12671945      -0.00646799       0.03845561
7
Lattice="13.0 0.0 0.0 0.0 9.0 0.0 0.0 0.0 9.0" Properties=species:S:1:pos:R:3:momenta:R:3:forces:R:3 EPS_SCF=1e-06 energy=-671.4736193433156 units=gap_units Integrated_spin_density=1.924e-05 opt_dir=/home/tks32/dft_pbe/apr_8_opt_fragments_subset/singlepoint_5_CH3OH time=110.0 free_energy=-671.4736193433156 cutoff=8.0 nneightol=1.2 pbc="T T T"
C       -0.84697788       0.65691399      -0.03766800      -0.99026124       1.96148420      -0.86185399      -0.25372078       0.09875364       0.04543328
O        1.04999653      -0.78745673       0.37966516       0.52106904      -2.07322543      -0.45735917      -0.21751292      -0.16042857      -0.10170300
H       -1.56561378      -0.13117991      -0.27817876      -0.10467008       0.23693975       0.08737419       0.01516596      -0.03716226      -0.04086515
H        0.91242200      -1.64904039      -0.02722086       0.02890632      -1.02985606       0.25251465       0.08934516      -0.00684975       0.14459538
H       -0.80227583       1.01558293       0.99168283      -0.41071778      -0.14988528       0.11962937       0.07042323       0.02053821       0.01631642
H       -0.46292758       1.29053845      -0.83858372       0.27297357       0.40710170       0.51635209       0.04210759       0.02343370       0.00987795
H        1.71537655      -0.39535833      -0.18969665       0.68270018       0.64744112       0.34334286       0.25419176       0.06171503      -0.07365487
7
Lattice="13.0 0.0 0.0 0.0 9.0 0.0 0.0 0.0 9.0" Properties=species:S:1:pos:R:3:momenta:R:3:forces:R:3 EPS_SCF=1e-06 energy=-671.4738200653908 units=gap_units Integrated_spin_density=1.924e-05 opt_dir=/home/tks32/dft_pbe/apr_8_opt_fragments_subset/singlepoint_5_CH3OH time=110.0 free_energy=-671.4738200653908 cutoff=8.0 nneightol=1.2 pbc="T T T"
C       -0.84838111       0.65803699      -0.03780685      -0.99026124       1.96148420      -0.86185399      -0.26199411       0.07463517       0.06625276
O        1.05061496      -0.78678465       0.37741132       0.52106904      -2.07322543      -0.45735917      -0.32672157      -0.23008627      -0.00515247
H       -1.56567916      -0.13167089      -0.27852548      -0.10467008       0.23693975       0.08737419       0.02181552      -0.02317311      -0.03555052
H        0.91288270      -1.64972701      -0.02644676       0.02890632      -1.02985606       0.25251465       0.09628944       0.00601807       0.14248118
H       -0.80175809       1.01576521       0.99197629      -0.41071778      -0.14988528       0.11962937       0.06482751       0.01773158       0.00683910
H       -0.46277201       1.29040771      -0.83816941       0.27297357       0.40710170       0.51635209       0.04700995       0.03813177      -0.00760707
H        1.71509272      -0.39602736      -0.18843911       0.68270018       0.64744112       0.34334286       0.35877325       0.11674278      -0.16726299
7
Lattice="13.0 0.0 0.0 0.0 9.0 0.0 0.0 0.0 9.0" Properties=species:S:1:pos:R:3:momenta:R:3:forces:R:3 EPS_SCF=1e-06 energy=-671.4739043095807 units=gap_units Integrated_spin_density=1.924e-05 opt_dir=/home/tks32/dft_pbe/apr_8_opt_fragments_subset/singlepoint_5_CH3OH time=110.0 free_energy=-671.4739043095807 cutoff=8.0 nneightol=1.2 pbc="T T T"
C       -0.84843064       0.65805110      -0.03779432      -0.99026124       1.96148420      -0.86185399      -0.26051815       0.07547469       0.06508330
O        1.05055319      -0.78682815       0.37741035       0.52106904      -2.07322543      -0.45735917      -0.32161195      -0.22445691      -0.00782447
H       -1.56567504      -0.13167527      -0.27853220      -0.10467008       0.23693975       0.08737419       0.02127904      -0.02352212      -0.03553580
H        0.91290090      -1.64972587      -0.02641982       0.02890632      -1.02985606       0.25251465       0.09592137       0.00324739       0.14114506
H       -0.80174583       1.01576856       0.99197758      -0.41071778      -0.14988528       0.11962937       0.06458648       0.01777130       0.00723176
H       -0.46276312       1.29041492      -0.83817085       0.27297357       0.40710170       0.51635209       0.04655435       0.03749119      -0.00682871
H        1.71516055      -0.39600529      -0.18847073       0.68270018       0.64744112       0.34334286       0.35378885       0.11399446      -0.16327115
7
Lattice="13.0 0.0 0.0 0.0 9.0 0.0 0.0 0.0 9.0" Properties=species:S:1:pos:R:3:momenta:R:3:forces:R:3 EPS_SCF=1e-06 energy=-671.4740680031033 units=gap_units Integrated_spin_density=1.924e-05 opt_dir=/home/tks32/dft_pbe/apr_8_opt_fragments_subset/singlepoint_5_CH3OH time=110.0 free_energy=-671.4740680031033 cutoff=8.0 nneightol=1.2 pbc="T T T"
C       -0.84852947       0.65807952      -0.03776950      -0.99026124       1.96148420      -0.86185399      -0.25758831       0.07713130       0.06276851
O        1.05043062      -0.78691404       0.37740784       0.52106904      -2.07322543      -0.45735917      -0.31150486      -0.21332581      -0.01311172
H       -1.56566690      -0.13168411      -0.27854565      -0.10467008       0.23693975       0.08737419       0.02021663      -0.02420992      -0.03550484
H        0.91293726      -1.64972417      -0.02636618       0.02890632      -1.02985606       0.25251465       0.09519705      -0.00222400       0.13850433
H       -0.80172135       1.01577528       0.99198025      -0.41071778      -0.14988528       0.11962937       0.06410634       0.01784907       0.00800801
H       -0.46274543       1.29042921      -0.83817357       0.27297357       0.40710170       0.51635209       0.04565099       0.03622415      -0.00528889
H        1.71529527      -0.39596169      -0.18853319       0.68270018       0.64744112       0.34334286       0.34392217       0.10855520      -0.15537539
7
Lattice="13.0 0.0 0.0 0.0 9.0 0.0 0.0 0.0 9.0" Properties=species:S:1:pos:R:3:momenta:R:3:forces:R:3 EPS_SCF=1e-06 energy=-671.4743019564932 units=gap_units Integrated_spin_density=1.924e-05 opt_dir=/home/tks32/dft_pbe/apr_8_opt_fragments_subset/singlepoint_5_CH3OH time=110.0 free_energy=-671.4743019564932 cutoff=8.0 nneightol=1.2 pbc="T T T"
C       -0.84867722       0.65812270      -0.03773282      -0.99026124       1.96148420      -0.86185399      -0.25324860       0.07955862       0.05935749
O        1.05024920      -0.78704004       0.37740259       0.52106904      -2.07322543      -0.45735917      -0.29662857      -0.19695409      -0.02089996
H       -1.56565495      -0.13169759      -0.27856586      -0.10467008       0.23693975       0.08737419       0.01864962      -0.02521523      -0.03545432
H        0.91299172      -1.64972315      -0.02628629       0.02890632      -1.02985606       0.25251465       0.09414078      -0.01025166       0.13462381
H       -0.80168469       1.01578540       0.99198448      -0.41071778      -0.14988528       0.11962937       0.06339062       0.01796142       0.00914928
H       -0.46271909       1.29045035      -0.83817722       0.27297357       0.40710170       0.51635209       0.04431575       0.03435952      -0.00302214
H        1.71549502      -0.39589766      -0.18862488       0.68270018       0.64744112       0.34334286       0.32938040       0.10054141      -0.14375417
7
Lattice="13.0 0.0 0.0 0.0 9.0 0.0 0.0 0.0 9.0" Properties=species:S:1:pos:R:3:momenta:R:3:forces:R:3 EPS_SCF=1e-06 energy=-671.4745933704886 units=gap_units Integrated_spin_density=1.924e-05 opt_dir=/home/tks32/dft_pbe/apr_8_opt_fragments_subset/singlepoint_5_CH3OH time=110.0 free_energy=-671.4745933704886 cutoff=8.0 nneightol=1.2 pbc="T T T"
C       -0.84887344       0.65818143      -0.03768499      -0.99026124       1.96148420      -0.86185399      -0.24756466       0.08268512       0.05492503
O        1.05001185      -0.78720263       0.37739265       0.52106904      -2.07322543      -0.45735917      -0.27732979      -0.17574069      -0.03101772
H       -1.56563954      -0.13171602      -0.27859290      -0.10467008       0.23693975       0.08737419       0.01661037      -0.02650508      -0.03537881
H        0.91306424      -1.64972479      -0.02618077       0.02890632      -1.02985606       0.25251465       0.09278986      -0.02061308       0.12960310
H       -0.80163586       1.01579899       0.99199057      -0.41071778      -0.14988528       0.11962937       0.06244403       0.01810298       0.01062719
H       -0.46268431       1.29047795      -0.83818126       0.27297357       0.40710170       0.51635209       0.04257269       0.03194134      -0.00008116
H        1.71575706      -0.39581493      -0.18874329       0.68270018       0.64744112       0.34334286       0.31047749       0.09012941      -0.12867763
7
Lattice="13.0 0.0 0.0 0.0 9.0 0.0 0.0 0.0 9.0" Properties=species:S:1:pos:R:3:momenta:R:3:forces:R:3 EPS_SCF=1e-06 energy=-671.474926960886 units=gap_units Integrated_spin_density=1.924e-05 opt_dir=/home/tks32/dft_pbe/apr_8_opt_fragments_subset/singlepoint_5_CH3OH time=110.0 free_energy=-671.474926960886 cutoff=8.0 nneightol=1.2 pbc="T T T"
C       -0.84911771       0.65825689      -0.03762693      -0.99026124       1.96148420      -0.86185399      -0.24062374       0.08641275       0.04957230
O        1.04972241      -0.78739699       0.37737522       0.52106904      -2.07322543      -0.45735917      -0.25407605      -0.15022684      -0.04323678
H       -1.56562114      -0.13173986      -0.27862691      -0.10467008       0.23693975       0.08737419       0.01414242      -0.02803403      -0.03527047
H        0.91315487      -1.64973190      -0.02605038       0.02890632      -1.02985606       0.25251465       0.09119496      -0.03300401       0.12357814
H       -0.80157484       1.01581617       0.99199896      -0.41071778      -0.14988528       0.11962937       0.06127219       0.01826634       0.01240308
H       -0.46264137       1.29051152      -0.83818492       0.27297357       0.40710170       0.51635209       0.04045426       0.02902937       0.00346251
H        1.71607777      -0.39571584      -0.18888504       0.68270018       0.64744112       0.34334286       0.28763595       0.07755641      -0.11050879
7
Lattice="13.0 0.0 0.0 0.0 9.0 0.0 0.0 0.0 9.0" Properties=species:S:1:pos:R:3:momenta:R:3:forces:R:3 EPS_SCF=1e-06 energy=-671.4752863567148 units=gap_units Integrated_spin_density=1.924e-05 opt_dir=/home/tks32/dft_pbe/apr_8_opt_fragments_subset/singlepoint_5_CH3OH time=110.0 free_energy=-671.4752863567148 cutoff=8.0 nneightol=1.2 pbc="T T T"
C       -0.84940971       0.65835072      -0.03755982      -0.99026124       1.96148420      -0.86185399      -0.23253535       0.09061521       0.04342834
O        1.04938574      -0.78761697       0.37734657       0.52106904      -2.07322543      -0.45735917      -0.22746015      -0.12110292      -0.05727172
H       -1.56560033      -0.13176972      -0.27866810      -0.10467008       0.23693975       0.08737419       0.01130108      -0.02974312      -0.03511876
H        0.91326378      -1.64974820      -0.02589596       0.02890632      -1.02985606       0.25251465       0.08942060      -0.04703362       0.11672334
H       -0.80150155       1.01583712       0.99201023      -0.41071778      -0.14988528       0.11962937       0.05988127       0.01844194       0.01442746
H       -0.46259060       1.29055045      -0.83818717       0.27297357       0.40710170       0.51635209       0.03800178       0.02569990       0.00751752
H        1.71645266      -0.39560340      -0.18904575       0.68270018       0.64744112       0.34334286       0.26139077       0.06312262      -0.08970618
7
Lattice="13.0 0.0 0.0 0.0 9.0 0.0 0.0 0.0 9.0" Properties=species:S:1:pos:R:3:momenta:R:3:forces:R:3 EPS_SCF=1e-06 energy=-671.4756556853926 units=gap_units Integrated_spin_density=1.924e-05 opt_dir=/home/tks32/dft_pbe/apr_8_opt_fragments_subset/singlepoint_5_CH3OH time=110.0 free_energy=-671.4756556853926 cutoff=8.0 nneightol=1.2 pbc="T T T"
C       -0.84974922       0.65846506      -0.03748508      -0.99026124       1.96148420      -0.86185399      -0.22343336       0.09513524       0.03665259
O        1.04900769      -0.78785491       0.37730189       0.52106904      -2.07322543      -0.45735917      -0.19820926      -0.08922005      -0.07277685
H       -1.56557788      -0.13180640      -0.27871675      -0.10467008       0.23693975       0.08737419       0.00815442      -0.03155857      -0.03491010
H        0.91339131      -1.64977838      -0.02571848       0.02890632      -1.02985606       0.25251465       0.08754580      -0.06221768       0.10925476
H       -0.80141583       1.01586205       0.99202513      -0.41071778      -0.14988528       0.11962937       0.05827800       0.01861788       0.01663886