7
Lattice="13.0 0.0 0.0 0.0 9.0 0.0 0.0 0.0 9.0" Properties=species:S:1:pos:R:3:momenta:R:3:forces:R:3 EPS_SCF=1e-06 energy=-670.444222174553 units=gap_units Integrated_spin_density=1.924e-05 opt_dir=/home/tks32/dft_pbe/apr_8_opt_fragments_subset/singlepoint_5_CH3OH time=25.0 free_energy=-670.444222174553 cutoff=8.0 nneightol=1.2 pbc="T T T"
C       -0.62295097       0.36701245      -0.03554467      -0.68255313       0.28152223      -0.40670973       0.23140090      -1.89939984       0.09068123
O        0.45771743      -0.71517402      -0.26787758       1.75027887       0.75902941       0.77511856       0.13718159       3.99687512      -1.83741984
H       -1.64660123      -0.08214050       0.02697032      -0.19203621      -0.01410401       0.32048922       0.57985464       0.20160317      -0.16073288
H        0.38721087      -1.37504381       0.37819466      -0.36335115      -0.36990115      -0.41517849      -0.28402764      -1.98276222       2.16792128
H       -0.41454619       0.96662846       0.86152664       0.39290518      -0.13081238      -0.00656175       0.09683749       0.06964587       0.42543862
H       -0.57463422       1.05537072      -0.88415170      -0.06231355      -0.07451264      -0.03579864       0.14019346       0.06235077      -0.50843057
H        2.41380431      -0.21665331      -0.07911767      -0.84293000      -0.45122147      -0.23135917      -0.90144044      -0.44831287      -0.17745784
7
Lattice="13.0 0.0 0.0 0.0 9.0 0.0 0.0 0.0 9.0" Properties=species:S:1:pos:R:3:momenta:R:3:forces:R:3 EPS_SCF=1e-06 energy=-670.6060214420261 units=gap_units Integrated_spin_density=1.924e-05 opt_dir=/home/tks32/dft_pbe/apr_8_opt_fragments_subset/singlepoint_5_CH3OH time=25.0 free_energy=-670.6060214420261 cutoff=8.0 nneightol=1.2 pbc="T T T"
C       -0.62063696       0.34801845      -0.03463786      -0.68255313       0.28152223      -0.40670973       0.47174316      -0.37146442      -0.16604310
O        0.45908925      -0.67520527      -0.28625178       1.75027887       0.75902941       0.77511856       0.00393285       0.74208374       0.90588784
H       -1.64080268      -0.08012447       0.02536299      -0.19203621      -0.01410401       0.32048922       0.26140648      -0.12757875      -0.13782671
H        0.38437059      -1.39487143       0.39987387      -0.36335115      -0.36990115      -0.41517849       0.14430160       0.58011532      -0.47501160
H       -0.41357782       0.96732492       0.86578103       0.39290518      -0.13081238      -0.00656175       0.01389244      -0.18608385       0.16408970
H       -0.57323229       1.05599423      -0.88923601      -0.06231355      -0.07451264      -0.03579864       0.01450836      -0.20829330      -0.10912494
H        2.40478991      -0.22113644      -0.08089225      -0.84293000      -0.45122147      -0.23135917      -0.90978490      -0.42877874      -0.18197120
7
Lattice="13.0 0.0 0.0 0.0 9.0 0.0 0.0 0.0 9.0" Properties=species:S:1:pos:R:3:momenta:R:3:forces:R:3 EPS_SCF=1e-06 energy=-670.5695172948842 units=gap_units Integrated_spin_density=1.924e-05 opt_dir=/home/tks32/dft_pbe/apr_8_opt_fragments_subset/singlepoint_5_CH3OH time=25.0 free_energy=-670.5695172948842 cutoff=8.0 nneightol=1.2 pbc="T T T"
C       -0.61239568       0.32607433      -0.03598944      -0.68255313       0.28152223      -0.40670973       0.41449472       1.29257545      -0.19052201
O        0.46037522      -0.62954538      -0.29096206       1.75027887       0.75902941       0.77511856       0.23199155      -1.52396340       2.20311937
H       -1.63217129      -0.07997560       0.02211705      -0.19203621      -0.01410401       0.32048922      -0.00815112      -0.47268383      -0.13123708
H        0.38369822      -1.40514280       0.41318382      -0.36335115      -0.36990115      -0.41517849       0.39869355       1.92216345      -1.78309262
H       -0.41252491       0.96552238       0.87175219       0.39290518      -0.13081238      -0.00656175      -0.08474291      -0.41688077      -0.12925902
H       -0.57178114       1.05383609      -0.89523652      -0.06231355      -0.07451264      -0.03579864      -0.09522791      -0.39490700       0.21036162
H        2.38479957      -0.23076902      -0.08486503      -0.84293000      -0.45122147      -0.23135917      -0.85705789      -0.40630389      -0.17937026
7
Lattice="13.0 0.0 0.0 0.0 9.0 0.0 0.0 0.0 9.0" Properties=species:S:1:pos:R:3:momenta:R:3:forces:R:3 EPS_SCF=1e-06 energy=-670.6103359885215 units=gap_units Integrated_spin_density=1.924e-05 opt_dir=/home/tks32/dft_pbe/apr_8_opt_fragments_subset/singlepoint_5_CH3OH time=25.0 free_energy=-670.6103359885215 cutoff=8.0 nneightol=1.2 pbc="T T T"
C       -0.61135944       0.32930577      -0.03646575      -0.68255313       0.28152223      -0.40670973       0.30458958       1.03845168      -0.12032128
O        0.46095520      -0.63335529      -0.28545426       1.75027887       0.75902941       0.77511856       0.26402326      -1.14932204       1.88318069
H       -1.63219167      -0.08115731       0.02178895      -0.19203621      -0.01410401       0.32048922       0.06766045      -0.41161594      -0.13633629
H        0.38469496      -1.40033739       0.40872609      -0.36335115      -0.36990115      -0.41517849       0.34755536       1.63779789      -1.49829020
H       -0.41273677       0.96448018       0.87142904       0.39290518      -0.13081238      -0.00656175      -0.07262743      -0.36082830      -0.09381657
H       -0.57201921       1.05284882      -0.89471062      -0.06231355      -0.07451264      -0.03579864      -0.05983757      -0.34394318       0.14368586
H        2.38265692      -0.23178478      -0.08531346      -0.84293000      -0.45122147      -0.23135917      -0.85136365      -0.41054011      -0.17810221
7
Lattice="13.0 0.0 0.0 0.0 9.0 0.0 0.0 0.0 9.0" Properties=species:S:1:pos:R:3:momenta:R:3:forces:R:3 EPS_SCF=1e-06 energy=-670.6662242671356 units=gap_units Integrated_spin_density=1.924e-05 opt_dir=/home/tks32/dft_pbe/apr_8_opt_fragments_subset/singlepoint_5_CH3OH time=25.0 free_energy=-670.6662242671356 cutoff=8.0 nneightol=1.2 pbc="T T T"
C       -0.60957496       0.33511838      -0.03723094      -0.68255313       0.28152223      -0.40670973       0.12026037       0.58076562       0.00364693
O        0.46221560      -0.63999861      -0.27523040       1.75027887       0.75902941       0.77511856       0.33370167      -0.37830959       1.22212856
H       -1.63202078      -0.08337205       0.02111237      -0.19203621      -0.01410401       0.32048922       0.19409145      -0.30596130      -0.14468016
H        0.38656405      -1.39143197       0.40052374      -0.36335115      -0.36990115      -0.41517849       0.24476653       1.02894507      -0.90054705
H       -0.41313056       0.96253304       0.87087582       0.39290518      -0.13081238      -0.00656175      -0.05165508      -0.25734983      -0.02620115
H       -0.57240082       1.05099834      -0.89383545      -0.06231355      -0.07451264      -0.03579864       0.00180631      -0.24849662       0.02118441
H        2.37834747      -0.23384716      -0.08621515      -0.84293000      -0.45122147      -0.23135917      -0.84297125      -0.41959335      -0.17553153
7
Lattice="13.0 0.0 0.0 0.0 9.0 0.0 0.0 0.0 9.0" Properties=species:S:1:pos:R:3:momenta:R:3:forces:R:3 EPS_SCF=1e-06 energy=-670.6996544297047 units=gap_units Integrated_spin_density=1.924e-05 opt_dir=/home/tks32/dft_pbe/apr_8_opt_fragments_subset/singlepoint_5_CH3OH time=25.0 free_energy=-670.6996544297047 cutoff=8.0 nneightol=1.2 pbc="T T T"
C       -0.60756638       0.34229371      -0.03790740      -0.68255313       0.28152223      -0.40670973      -0.07792811       0.02439153       0.14367692
O        0.46446694      -0.64724389      -0.26193815       1.75027887       0.75902941       0.77511856       0.43973329       0.71443335       0.28333267
H       -1.63121730      -0.08638944       0.02001916      -0.19203621      -0.01410401       0.32048922       0.32649918      -0.18681138      -0.15241008
H        0.38906554      -1.37997294       0.39012727      -0.36335115      -0.36990115      -0.41517849       0.10234029       0.12815236      -0.03904089
H       -0.41365788       0.95991920       0.87029023       0.39290518      -0.13081238      -0.00656175      -0.02836705      -0.12243104       0.06690158
H       -0.57273823       1.04850113      -0.89297688      -0.06231355      -0.07451264      -0.03579864       0.07235163      -0.12425668      -0.13087206
H        2.37164731      -0.23710778      -0.08761423      -0.84293000      -0.45122147      -0.23135917      -0.83462923      -0.43347815      -0.17158814
7
Lattice="13.0 0.0 0.0 0.0 9.0 0.0 0.0 0.0 9.0" Properties=species:S:1:pos:R:3:momenta:R:3:forces:R:3 EPS_SCF=1e-06 energy=-670.6996096988136 units=gap_units Integrated_spin_density=1.924e-05 opt_dir=/home/tks32/dft_pbe/apr_8_opt_fragments_subset/singlepoint_5_CH3OH time=25.0 free_energy=-670.6996096988136 cutoff=8.0 nneightol=1.2 pbc="T T T"
C       -0.60609137       0.34885564      -0.03790279      -0.68255313       0.28152223      -0.40670973      -0.21096874      -0.44328624       0.23123889
O        0.46837057      -0.65071441      -0.24876544       1.75027887       0.75902941       0.77511856       0.54415162       1.71138689      -0.57667593
H       -1.62910020      -0.08990268       0.01838456      -0.19203621      -0.01410401       0.32048922       0.40344312      -0.10188150      -0.15373809
H        0.39175381      -1.36911267       0.38060376      -0.36335115      -0.36990115      -0.41517849      -0.02544941      -0.72943842       0.75360641
H       -0.41425358       0.95704403       0.87004882       0.39290518      -0.13081238      -0.00656175      -0.01440033       0.01704349       0.16989584
H       -0.57273299       1.04572314      -0.89276293      -0.06231355      -0.07451264      -0.03579864       0.12553073      -0.00524881      -0.25783094
H        2.36205377      -0.24189306      -0.08960598      -0.84293000      -0.45122147      -0.23135917      -0.82230698      -0.44857541      -0.16649618
7
Lattice="13.0 0.0 0.0 0.0 9.0 0.0 0.0 0.0 9.0" Properties=species:S:1:pos:R:3:momenta:R:3:forces:R:3 EPS_SCF=1e-06 energy=-670.7033749189613 units=gap_units Integrated_spin_density=1.924e-05 opt_dir=/home/tks32/dft_pbe/apr_8_opt_fragments_subset/singlepoint_5_CH3OH time=25.0 free_energy=-670.7033749189613 cutoff=8.0 nneightol=1.2 pbc="T T T"
C       -0.60622323       0.34857859      -0.03775826      -0.68255313       0.28152223      -0.40670973      -0.19623611      -0.41033805       0.21803137
O        0.46871066      -0.64964480      -0.24912587       1.75027887       0.75902941       0.77511856       0.53630149       1.63571013      -0.51767595
H       -1.62884805      -0.08996636       0.01828848      -0.19203621      -0.01410401       0.32048922       0.39080173      -0.11096505      -0.15255026
H        0.39173790      -1.36956857       0.38107476      -0.36335115      -0.36990115      -0.41517849      -0.01444063      -0.67095593       0.69803566
H       -0.41426258       0.95705468       0.87015501       0.39290518      -0.13081238      -0.00656175      -0.01736927       0.01472333       0.16809410
H       -0.57265454       1.04571986      -0.89292407      -0.06231355      -0.07451264      -0.03579864       0.12097678      -0.01042642      -0.24740140
H        2.36153983      -0.24217342      -0.08971004      -0.84293000      -0.45122147      -0.23135917      -0.82003399      -0.44774801      -0.16653351
7
Lattice="13.0 0.0 0.0 0.0 9.0 0.0 0.0 0.0 9.0" Properties=species:S:1:pos:R:3:momenta:R:3:forces:R:3 EPS_SCF=1e-06 energy=-670.7102313290048 units=gap_units Integrated_spin_density=1.924e-05 opt_dir=/home/tks32/dft_pbe/apr_8_opt_fragments_subset/singlepoint_5_CH3OH time=25.0 free_energy=-670.7102313290048 cutoff=8.0 nneightol=1.2 pbc="T T T"
C       -0.60647739       0.34804591      -0.03747765      -0.68255313       0.28152223      -0.40670973      -0.16756659      -0.34638547       0.19262513
O        0.46938706      -0.64755271      -0.24980769       1.75027887       0.75902941       0.77511856       0.52099120       1.48964386      -0.40438979
H       -1.62835127      -0.09010028       0.01809667      -0.19203621      -0.01410401       0.32048922       0.36616811      -0.12865169      -0.15025947
H        0.39171362      -1.37044216       0.38198065      -0.36335115      -0.36990115      -0.41517849       0.00691980      -0.55848172       0.59133152
H       -0.41428267       0.95707443       0.87036664       0.39290518      -0.13081238      -0.00656175      -0.02321582       0.01027556       0.16455176
H       -0.57250039       1.04570971      -0.89323993      -0.06231355      -0.07451264      -0.03579864       0.11208350      -0.02027758      -0.22727772
H        2.36051106      -0.24273490      -0.08991868      -0.84293000      -0.45122147      -0.23135917      -0.81538020      -0.44612295      -0.16658143
7
Lattice="13.0 0.0 0.0 0.0 9.0 0.0 0.0 0.0 9.0" Properties=species:S:1:pos:R:3:momenta:R:3:forces:R:3 EPS_SCF=1e-06 energy=-670.7190096146549 units=gap_units Integrated_spin_density=1.924e-05 opt_dir=/home/tks32/dft_pbe/apr_8_opt_fragments_subset/singlepoint_5_CH3OH time=25.0 free_energy=-670.7190096146549 cutoff=8.0 nneightol=1.2 pbc="T T T"
C       -0.60683442       0.34730133      -0.03707763      -0.68255313       0.28152223      -0.40670973      -0.12661357      -0.25534064       0.15702720
O        0.47039464      -0.64452947      -0.25073091       1.75027887       0.75902941       0.77511856       0.49899698       1.28359405      -0.24604024
H       -1.62762386      -0.09031930       0.01780901      -0.19203621      -0.01410401       0.32048922       0.33087646      -0.15395872      -0.14703295
H        0.39169706      -1.37165593       0.38324863      -0.36335115      -0.36990115      -0.41517849       0.03732381      -0.40082227       0.44215228
H       -0.41431853       0.95710008       0.87068308       0.39290518      -0.13081238      -0.00656175      -0.03176012       0.00409981       0.15938568
H       -0.57227586       1.04568505      -0.89369819      -0.06231355      -0.07451264      -0.03579864       0.09929862      -0.03380875      -0.19890665
H        2.35896097      -0.24358176      -0.09023399      -0.84293000      -0.45122147      -0.23135917      -0.80812218      -0.44376348      -0.16658532
7
Lattice="13.0 0.0 0.0 0.0 9.0 0.0 0.0 0.0 9.0" Properties=species:S:1:pos:R:3:momenta:R:3:forces:R:3 EPS_SCF=1e-06 energy=-670.7283619265452 units=gap_units Integrated_spin_density=1.924e-05 opt_dir=/home/tks32/dft_pbe/apr_8_opt_fragments_subset/singlepoint_5_CH3OH time=25.0 free_energy=-670.7283619265452 cutoff=8.0 nneightol=1.2 pbc="T T T"
C       -0.60726439       0.34641211      -0.03658288      -0.68255313       0.28152223      -0.40670973      -0.07600898      -0.14313279       0.11420154
O        0.47172964      -0.64070716      -0.25177292       1.75027887       0.75902941       0.77511856       0.47146091       1.03271709      -0.05592174
H       -1.62668528      -0.09064853       0.01742395      -0.19203621      -0.01410401       0.32048922       0.28701912      -0.18535633      -0.14311515
H        0.39171418      -1.37309225       0.38476920      -0.36335115      -0.36990115      -0.41517849       0.07483212      -0.21070935       0.26292715
H       -0.41437805       0.95712667       0.87110463       0.39290518      -0.13081238      -0.00656175      -0.04272966      -0.00317440       0.15276853
H       -0.57198858       1.04563384      -0.89428129      -0.06231355      -0.07451264      -0.03579864       0.08333639      -0.04957341      -0.16439861
H        2.35687248      -0.24472470      -0.09066070      -0.84293000      -0.45122147      -0.23135917      -0.79790991      -0.44077082      -0.16646171
7
Lattice="13.0 0.0 0.0 0.0 9.0 0.0 0.0 0.0 9.0" Properties=species:S:1:pos:R:3:momenta:R:3:forces:R:3 EPS_SCF=1e-06 energy=-670.7371451116467 units=gap_units Integrated_spin_density=1.924e-05 opt_dir=/home/tks32/dft_pbe/apr_8_opt_fragments_subset/singlepoint_5_CH3OH time=25.0 free_energy=-670.7371451116467 cutoff=8.0 nneightol=1.2 pbc="T T T"
C       -0.60772544       0.34547230      -0.03602629      -0.68255313       0.28152223      -0.40670973      -0.01961523      -0.01795451       0.06806672
O        0.47339066      -0.63626049      -0.25276524       1.75027887       0.75902941       0.77511856       0.43988980       0.75677366       0.14892363
H       -1.62556080      -0.09112550       0.01693791      -0.19203621      -0.01410401       0.32048922       0.23762025      -0.22065303      -0.13882558
H        0.39180253      -1.37459031       0.38639398      -0.36335115      -0.36990115      -0.41517849       0.11685430      -0.00453502       0.06950306
H       -0.41447327       0.95714752       0.87163294       0.39290518      -0.13081238      -0.00656175      -0.05573289      -0.01064340       0.14494641
H       -0.57164880       1.04553944      -0.89496633      -0.06231355      -0.07451264      -0.03579864       0.06524572      -0.06569463      -0.12651790
H        2.35421511      -0.24618297      -0.09120699      -0.84293000      -0.45122147      -0.23135917      -0.78426195      -0.43729307      -0.16609633
7
Lattice="13.0 0.0 0.0 0.0 9.0 0.0 0.0 0.0 9.0" Properties=species:S:1:pos:R:3:momenta:R:3:forces:R:3 EPS_SCF=1e-06 energy=-670.7447817584957 units=gap_units Integrated_spin_density=1.924e-05 opt_dir=/home/tks32/dft_pbe/apr_8_opt_fragments_subset/singlepoint_5_CH3OH time=25.0 free_energy=-670.7447817584957 cutoff=8.0 nneightol=1.2 pbc="T T T"
C       -0.60816207       0.34460664      -0.03545014      -0.68255313       0.28152223      -0.40670973       0.03711188       0.10925462       0.02350573
O        0.47537165      -0.63142228      -0.25349377       1.75027887       0.75902941       0.77511856       0.40620724       0.48032471       0.34790022
H       -1.62428620      -0.09179858       0.01634708      -0.19203621      -0.01410401       0.32048922       0.18691766      -0.25680109      -0.13455903
H        0.39201116      -1.37594358       0.38793309      -0.36335115      -0.36990115      -0.41517849       0.16006188       0.19774555      -0.11907212
H       -0.41462055       0.95715452       0.87226857       0.39290518      -0.13081238      -0.00656175      -0.07018222      -0.01708542       0.13629554
H       -0.57127090       1.04538189      -0.89572265      -0.06231355      -0.07451264      -0.03579864       0.04651392      -0.07989629      -0.08872351
H        2.35095691      -0.24797861      -0.09188218      -0.84293000      -0.45122147      -0.23135917      -0.76663036      -0.43354208      -0.16534683
7
Lattice="13.0 0.0 0.0 0.0 9.0 0.0 0.0 0.0 9.0" Properties=species:S:1:pos:R:3:momenta:R:3:forces:R:3 EPS_SCF=1e-06 energy=-670.7514584158428 units=gap_units Integrated_spin_density=1.924e-05 opt_dir=/home/tks32/dft_pbe/apr_8_opt_fragments_subset/singlepoint_5_CH3OH time=25.0 free_energy=-670.7514584158428 cutoff=8.0 nneightol=1.2 pbc="T T T"
C       -0.60851064       0.34395822      -0.03490350      -0.68255313       0.28152223      -0.40670973       0.08739680       0.22539099      -0.01418768
O        0.47764041      -0.62649337      -0.25373331       1.75027887       0.75902941       0.77511856       0.37266728       0.23068500       0.51908802
H       -1.62291549      -0.09271153       0.01565437      -0.19203621      -0.01410401       0.32048922       0.14019972      -0.29000495      -0.13074391
H        0.39239038      -1.37692499       0.38917586      -0.36335115      -0.36990115      -0.41517849       0.20058441       0.37463050      -0.28259023
H       -0.41483705       0.95714038       0.87300367       0.39290518      -0.13081238      -0.00656175      -0.08521967      -0.02109557       0.12738486
H       -0.57087515       1.04514453      -0.89650947      -0.06231355      -0.07451264      -0.03579864       0.02901025      -0.08981513      -0.05487988
H        2.34710753      -0.25011325      -0.09268762      -0.84293000      -0.45122147      -0.23135917      -0.74463879      -0.42979084      -0.16407118
7
Lattice="13.0 0.0 0.0 0.0 9.0 0.0 0.0 0.0 9.0" Properties=species:S:1:pos:R:3:momenta:R:3:forces:R:3 EPS_SCF=1e-06 energy=-670.7586675336469 units=gap_units Integrated_spin_density=1.924e-05 opt_dir=/home/tks32/dft_pbe/apr_8_opt_fragments_subset/singlepoint_5_CH3OH time=25.0 free_energy=-670.7586675336469 cutoff=8.0 nneightol=1.2 pbc="T T T"
C       -0.60873372       0.34363094      -0.03438213      -0.68255313       0.28152223      -0.40670973       0.12835203       0.32737768      -0.04315838
O        0.48040675      -0.62129169      -0.25324579       1.75027887       0.75902941       0.77511856       0.33803410       0.01185452       0.65657826
H       -1.62136276      -0.09402020       0.01478608      -0.19203621      -0.01410401       0.32048922       0.09882724      -0.31919997      -0.12743047
H        0.39304584      -1.37737360       0.39001170      -0.36335115      -0.36990115      -0.41517849       0.23834486       0.52112979      -0.41632427
H       -0.41517035       0.95709693       0.87390925       0.39290518      -0.13081238      -0.00656175      -0.10141138      -0.02137854       0.11799963
H       -0.57044287       1.04478415      -0.89736504      -0.06231355      -0.07451264      -0.03579864       0.01309430      -0.09383835      -0.02572561
H        2.34225711      -0.25282655      -0.09371406      -0.84293000      -0.45122147      -0.23135917      -0.71524114      -0.42594513      -0.16193916
7
Lattice="13.0 0.0 0.0 0.0 9.0 0.0 0.0 0.0 9.0" Properties=species:S:1:pos:R:3:momenta:R:3:forces:R:3 EPS_SCF=1e-06 energy=-670.767742649411 units=gap_units Integrated_spin_density=1.924e-05 opt_dir=/home/tks32/dft_pbe/apr_8_opt_fragments_subset/singlepoint_5_CH3OH time=25.0 free_energy=-670.767742649411 cutoff=8.0 nneightol=1.2 pbc="T T T"
C       -0.60875261       0.34382229      -0.03393339      -0.68255313       0.28152223      -0.40670973       0.15110137       0.39917591      -0.05768876
O        0.48368096      -0.61611764      -0.25172830       1.75027887       0.75902941       0.77511856       0.30417194      -0.14607181       0.73670339
H       -1.61966817      -0.09582006       0.01372476      -0.19203621      -0.01410401       0.32048922       0.06937702      -0.33944397      -0.12500888
H        0.39407092      -1.37699727       0.39018426      -0.36335115      -0.36990115      -0.41517849       0.26905508       0.61368330      -0.49877318
H       -0.41566044       0.95702020       0.87499265       0.39290518      -0.13081238      -0.00656175      -0.11778866      -0.01591724       0.10893672
H       -0.56999380       1.04427916      -0.89825352      -0.06231355      -0.07451264      -0.03579864       0.00103168      -0.08911893      -0.00550993
H        2.33632313      -0.25618669      -0.09498648      -0.84293000      -0.45122147      -0.23135917      -0.67694843      -0.42230726      -0.15865935
7
Lattice="13.0 0.0 0.0 0.0 9.0 0.0 0.0 0.0 9.0" Properties=species:S:1:pos:R:3:momenta:R:3:forces:R:3 EPS_SCF=1e-06 energy=-670.7801392848198 units=gap_units Integrated_spin_density=1.924e-05 opt_dir=/home/tks32/dft_pbe/apr_8_opt_fragments_subset/singlepoint_5_CH3OH time=25.0 free_energy=-670.7801392848198 cutoff=8.0 nneightol=1.2 pbc="T T T"
C       -0.60849865       0.34473259      -0.03359227      -0.68255313       0.28152223      -0.40670973       0.14723125       0.42521402      -0.05305495
O        0.48747859      -0.61124764      -0.24889305       1.75027887       0.75902941       0.77511856       0.27317344      -0.21485469       0.73857019
H       -1.61786160      -0.09821850       0.01244612      -0.19203621      -0.01410401       0.32048922       0.05802944      -0.34575712      -0.12371519
H        0.39557360      -1.37551629       0.38945528      -0.36335115      -0.36990115      -0.41517849       0.28859666       0.63052883      -0.51100624
H       -0.41635929       0.95691533       0.87626421       0.39290518      -0.13081238      -0.00656175      -0.13335955      -0.00270585       0.10112491
H       -0.56954638       1.04361727      -0.89914500      -0.06231355      -0.07451264      -0.03579864      -0.00505509      -0.07309931       0.00200971
H        2.32921373      -0.26028278      -0.09653530      -0.84293000      -0.45122147      -0.23135917      -0.62861616      -0.41932588      -0.15392844
7
Lattice="13.0 0.0 0.0 0.0 9.0 0.0 0.0 0.0 9.0" Properties=species:S:1:pos:R:3:momenta:R:3:forces:R:3 EPS_SCF=1e-06 energy=-670.796538569172 units=gap_units Integrated_spin_density=1.924e-05 opt_dir=/home/tks32/dft_pbe/apr_8_opt_fragments_subset/singlepoint_5_CH3OH time=25.0 free_energy=-670.796538569172 cutoff=8.0 nneightol=1.2 pbc="T T T"
C       -0.60793032       0.34654964      -0.03336734      -0.68255313       0.28152223      -0.40670973       0.11044311       0.39257118      -0.02649001
O        0.49183710      -0.60687169      -0.24449127       1.75027887       0.75902941       0.77511856       0.24650115      -0.17076620       0.64592896
H       -1.61594261      -0.10134308       0.01091049      -0.19203621      -0.01410401       0.32048922       0.06924696      -0.33379486      -0.12351911
H        0.39768574      -1.37269162       0.38763414      -0.36335115      -0.36990115      -0.41517849       0.29332320       0.55319008      -0.43829770
H       -0.41733974       0.95680536       0.87774430       0.39290518      -0.13081238      -0.00656175      -0.14732258       0.02002119       0.09555519
H       -0.56911282       1.04280290      -0.90002616      -0.06231355      -0.07451264      -0.03579864      -0.00365313      -0.04381556      -0.00578287
H        2.32080265      -0.26525153      -0.09840416      -0.84293000      -0.45122147      -0.23135917      -0.56853871      -0.41740583      -0.14739446
7
Lattice="13.0 0.0 0.0 0.0 9.0 0.0 0.0 0.0 9.0" Properties=species:S:1:pos:R:3:momenta:R:3:forces:R:3 EPS_SCF=1e-06 energy=-670.8158688283156 units=gap_units Integrated_spin_density=1.924e-05 opt_dir=/home/tks32/dft_pbe/apr_8_opt_fragments_subset/singlepoint_5_CH3OH time=25.0 free_energy=-670.8158688283156 cutoff=8.0 nneightol=1.2 pbc="T T T"
C       -0.60706878       0.34941000      -0.03321479      -0.68255313       0.28152223      -0.40670973       0.03974351       0.29568126       0.02069971
O        0.49683250      -0.60297885      -0.23838085       1.75027887       0.75902941       0.77511856       0.22425693      -0.00233386       0.45292253
H       -1.61384865      -0.10534582       0.00905205      -0.19203621      -0.01410401       0.32048922       0.10332243      -0.30120302      -0.12393160
H        0.40057315      -1.36839827       0.38464699      -0.36335115      -0.36990115      -0.41517849       0.28121216       0.37215216      -0.27530692
H       -0.41871003       0.95674975       0.87947247       0.39290518      -0.13081238      -0.00656175      -0.15945590       0.05325027       0.09311917
H       -0.56869153       1.04187555      -0.90091786      -0.06231355      -0.07451264      -0.03579864       0.00525086      -0.00078120      -0.02882484
H        2.31091334      -0.27131238      -0.10065802      -0.84293000      -0.45122147      -0.23135917      -0.49432999      -0.41676561      -0.13867806
7
Lattice="13.0 0.0 0.0 0.0 9.0 0.0 0.0 0.0 9.0" Properties=species:S:1:pos:R:3:momenta:R:3:forces:R:3 EPS_SCF=1e-06 energy=-670.835170635977 units=gap_units Integrated_spin_density=1.924e-05 opt_dir=/home/tks32/dft_pbe/apr_8_opt_fragments_subset/singlepoint_5_CH3OH time=25.0 free_energy=-670.835170635977 cutoff=8.0 nneightol=1.2 pbc="T T T"
C       -0.60606918       0.35331394      -0.03298896      -0.68255313       0.28152223      -0.40670973      -0.05490215       0.14651078       0.07865650
O        0.50260637      -0.59911228      -0.23067986       1.75027887       0.75902941       0.77511856       0.20234501       0.26797103       0.17948175
H       -1.61139506      -0.11040660       0.00675925      -0.19203621      -0.01410401       0.32048922       0.15189980      -0.25030974      -0.12366595
H        0.40445229      -1.36279464       0.38068967      -0.36335115      -0.36990115      -0.41517849       0.25514580       0.10384119      -0.04038407
H       -0.42064389       0.95688471       0.88152548       0.39290518      -0.13081238      -0.00656175      -0.17090897       0.09601823       0.09413051
H       -0.56825341       1.04094969      -0.90190846      -0.06231355      -0.07451264      -0.03579864       0.01847662       0.05286121      -0.06082852
H        2.29930289      -0.27883481      -0.10339712      -0.84293000      -0.45122147      -0.23135917      -0.40205611      -0.41689269      -0.12739022
7
Lattice="13.0 0.0 0.0 0.0 9.0 0.0 0.0 0.0 9.0" Properties=species:S:1:pos:R:3:momenta:R:3:forces:R:3 EPS_SCF=1e-06 energy=-670.8520364459945 units=gap_units Integrated_spin_density=1.924e-05 opt_dir=/home/tks32/dft_pbe/apr_8_opt_fragments_subset/singlepoint_5_CH3OH time=25.0 free_energy=-670.8520364459945 cutoff=8.0 nneightol=1.2 pbc="T T T"
C       -0.60533897       0.35791336      -0.03238309      -0.68255313       0.28152223      -0.40670973      -0.14403405      -0.00513032       0.12187574
O        0.50933940      -0.59396200      -0.22213727       1.75027887       0.75902941       0.77511856       0.16638662       0.53410343      -0.09472186
H       -1.60821473      -0.11666134       0.00387583      -0.19203621      -0.01410401       0.32048922       0.19081290      -0.19330709      -0.12026609
H        0.40955302      -1.35670819       0.37655092      -0.36335115      -0.36990115      -0.41517849       0.23052483      -0.16888924       0.19254277
H       -0.42339840       0.95748410       0.88402694       0.39290518      -0.13081238      -0.00656175      -0.18553276       0.14260542       0.09674310