7
Lattice="13.0 0.0 0.0 0.0 9.0 0.0 0.0 0.0 9.0" Properties=species:S:1:pos:R:3:momenta:R:3:forces:R:3 EPS_SCF=1e-06 energy=-671.334530597484 units=gap_units Integrated_spin_density=1.924e-05 opt_dir=/home/tks32/dft_pbe/apr_8_opt_fragments_subset/singlepoint_5_CH3OH time=115.0 free_energy=-671.334530597484 cutoff=8.0 nneightol=1.2 pbc="T T T"
C       -0.87999355       0.69995946      -0.02914235      -0.93759135       2.22133820       0.76700581       0.36954955       1.22814835      -0.55941106
O        1.01393924      -0.95887849       0.38740342       1.02514657      -2.17748921       1.15783613       2.28109329       2.01648291      -2.15684979
H       -1.65495679      -0.03217261      -0.20593645       0.06035346       0.24097807      -0.07716539      -0.19127938      -0.31963287      -0.07612561
H        1.09594555      -1.77193097      -0.11122721       0.24913515      -0.31200356      -0.85106868       0.12598285      -0.12948410       0.20098192
H       -0.73569181       1.07666352       0.99044126       0.26517714       0.12244966      -0.30806632       0.05819437      -0.06685523      -0.25343614
H       -0.51031243       1.31414787      -0.88715504      -0.59908483      -0.04677205      -0.16579444      -0.25589038      -0.69659049       0.94632103
H        1.67106979      -0.32778878      -0.14438363      -0.06313614      -0.04850112      -0.52274711      -2.38765029      -2.03206858       1.89851966
7
Lattice="13.0 0.0 0.0 0.0 9.0 0.0 0.0 0.0 9.0" Properties=species:S:1:pos:R:3:momenta:R:3:forces:R:3 EPS_SCF=1e-06 energy=-671.5338980384755 units=gap_units Integrated_spin_density=1.924e-05 opt_dir=/home/tks32/dft_pbe/apr_8_opt_fragments_subset/singlepoint_5_CH3OH time=115.0 free_energy=-671.5338980384755 cutoff=8.0 nneightol=1.2 pbc="T T T"
C       -0.87629805       0.71224094      -0.03473646      -0.93759135       2.22133820       0.76700581      -0.44453880       0.29795679       0.01510048
O        1.03675017      -0.93871366       0.36583492       1.02514657      -2.17748921       1.15783613       0.52098448       0.05597211      -0.85645899
H       -1.65686958      -0.03536894      -0.20669771       0.06035346       0.24097807      -0.07716539       0.21285112       0.06247859      -0.02265077
H        1.09720538      -1.77322581      -0.10921739       0.24913515      -0.31200356      -0.85106868       0.16628021       0.20344176       0.32796986
H       -0.73510987       1.07599497       0.98790690       0.26517714       0.12244966      -0.30806632       0.12354350       0.00299563      -0.23559395
H       -0.51287133       1.30718197      -0.87769183      -0.59908483      -0.04677205      -0.16579444       0.01985926      -0.17008103       0.28555592
H        1.64719329      -0.34810947      -0.12539843      -0.06313614      -0.04850112      -0.52274711      -0.59897977      -0.45276385       0.48607745
7
Lattice="13.0 0.0 0.0 0.0 9.0 0.0 0.0 0.0 9.0" Properties=species:S:1:pos:R:3:momenta:R:3:forces:R:3 EPS_SCF=1e-06 energy=-671.3784038642195 units=gap_units Integrated_spin_density=1.924e-05 opt_dir=/home/tks32/dft_pbe/apr_8_opt_fragments_subset/singlepoint_5_CH3OH time=115.0 free_energy=-671.3784038642195 cutoff=8.0 nneightol=1.2 pbc="T T T"
C       -0.87898329       0.72732334      -0.03956697      -0.93759135       2.22133820       0.76700581      -1.12838625      -0.59327120       0.63186600
O        1.06432492      -0.91980844       0.33484199       1.02514657      -2.17748921       1.15783613      -3.62123073      -3.86602970       2.54220173
H       -1.65571286      -0.03740078      -0.20768913       0.06035346       0.24097807      -0.07716539       0.45864805       0.33515698       0.00725856
H        1.10058771      -1.77164017      -0.10297365       0.24913515      -0.31200356      -0.85106868       0.29243432       0.20891971       0.20087175
H       -0.73291553       1.07543378       0.98244020       0.26517714       0.12244966      -0.30806632       0.16970676       0.09688710      -0.12109881
H       -0.51490580       1.29861277      -0.86531357      -0.59908483      -0.04677205      -0.16579444       0.32546936       0.42946118      -0.49820659
H        1.61760486      -0.37252049      -0.10173888      -0.06313614      -0.04850112      -0.52274711       3.50335848       3.38887593      -2.76289265
7
Lattice="13.0 0.0 0.0 0.0 9.0 0.0 0.0 0.0 9.0" Properties=species:S:1:pos:R:3:momenta:R:3:forces:R:3 EPS_SCF=1e-06 energy=-671.5035592244391 units=gap_units Integrated_spin_density=1.924e-05 opt_dir=/home/tks32/dft_pbe/apr_8_opt_fragments_subset/singlepoint_5_CH3OH time=115.0 free_energy=-671.5035592244391 cutoff=8.0 nneightol=1.2 pbc="T T T"
C       -0.88180426       0.72584016      -0.03798730      -0.93759135       2.22133820       0.76700581      -0.91975052      -0.37112373       0.45679064
O        1.05527184      -0.92947352       0.34119749       1.02514657      -2.17748921       1.15783613      -1.73193489      -1.73268872       1.17164149
H       -1.65456624      -0.03656289      -0.20767098       0.06035346       0.24097807      -0.07716539       0.34539076       0.23516208      -0.00263310
H        1.10131880      -1.77111787      -0.10247147       0.24913515      -0.31200356      -0.85106868       0.29444646      -0.09191279       0.07141244
H       -0.73249126       1.07567600       0.98213746       0.26517714       0.12244966      -0.30806632       0.15064995       0.09380498      -0.08627407
H       -0.51409213       1.29968642      -0.86655909      -0.59908483      -0.04677205      -0.16579444       0.25557589       0.30907624      -0.34306710
H        1.62636325      -0.36404830      -0.10864611      -0.06313614      -0.04850112      -0.52274711       1.60562235       1.55768194      -1.26787030
7
Lattice="13.0 0.0 0.0 0.0 9.0 0.0 0.0 0.0 9.0" Properties=species:S:1:pos:R:3:momenta:R:3:forces:R:3 EPS_SCF=1e-06 energy=-671.5580629119264 units=gap_units Integrated_spin_density=1.924e-05 opt_dir=/home/tks32/dft_pbe/apr_8_opt_fragments_subset/singlepoint_5_CH3OH time=115.0 free_energy=-671.5580629119264 cutoff=8.0 nneightol=1.2 pbc="T T T"
C       -0.88712353       0.72338339      -0.03518472      -0.93759135       2.22133820       0.76700581      -0.53946216       0.02413876       0.15765514
O        1.04188843      -0.94341000       0.35045932       1.02514657      -2.17748921       1.15783613      -0.08140950       0.26874832       0.04297627
H       -1.65249017      -0.03509789      -0.20766261       0.06035346       0.24097807      -0.07716539       0.14077045       0.05031284      -0.02214581
H        1.10286689      -1.77092565      -0.10180363       0.24913515      -0.31200356      -0.85106868       0.30323032      -0.50241324      -0.11453068
H       -0.73165400       1.07617756       0.98160418       0.26517714       0.12244966      -0.30806632       0.11537886       0.08648453      -0.02661235
H       -0.51258722       1.30158704      -0.86871714      -0.59908483      -0.04677205      -0.16579444       0.13108300       0.10083919      -0.07646422
H        1.63909961      -0.35171445      -0.11869539      -0.06313614      -0.04850112      -0.52274711      -0.06959097      -0.02811041       0.03912165
7
Lattice="13.0 0.0 0.0 0.0 9.0 0.0 0.0 0.0 9.0" Properties=species:S:1:pos:R:3:momenta:R:3:forces:R:3 EPS_SCF=1e-06 energy=-671.5274908031264 units=gap_units Integrated_spin_density=1.924e-05 opt_dir=/home/tks32/dft_pbe/apr_8_opt_fragments_subset/singlepoint_5_CH3OH time=115.0 free_energy=-671.5274908031264 cutoff=8.0 nneightol=1.2 pbc="T T T"
C       -0.89506269       0.72131333      -0.03174130      -0.93759135       2.22133820       0.76700581      -0.05596093       0.51320216      -0.18152752
O        1.02936772      -0.95438268       0.35904605       1.02514657      -2.17748921       1.15783613       0.97582896       1.41797691      -0.73819437
H       -1.64979925      -0.03348544      -0.20778446       0.06035346       0.24097807      -0.07716539      -0.11977841      -0.19125187      -0.04912615
H        1.10603179      -1.77368801      -0.10187172       0.24913515      -0.31200356      -0.85106868       0.29877053      -0.64809719      -0.16895829
H       -0.73022637       1.07713426       0.98096874       0.26517714       0.12244966      -0.30806632       0.07014304       0.07105998       0.03985112
H       -0.51046694       1.30388676      -0.87110614      -0.59908483      -0.04677205      -0.16579444      -0.02051615      -0.14386450       0.23130175
H        1.65015574      -0.34077823      -0.12751118      -0.06313614      -0.04850112      -0.52274711      -1.14848704      -1.01902547       0.86665347
7
Lattice="13.0 0.0 0.0 0.0 9.0 0.0 0.0 0.0 9.0" Properties=species:S:1:pos:R:3:momenta:R:3:forces:R:3 EPS_SCF=1e-06 energy=-671.5320939005913 units=gap_units Integrated_spin_density=1.924e-05 opt_dir=/home/tks32/dft_pbe/apr_8_opt_fragments_subset/singlepoint_5_CH3OH time=115.0 free_energy=-671.5320939005913 cutoff=8.0 nneightol=1.2 pbc="T T T"
C       -0.89509767       0.72163408      -0.03185476      -0.93759135       2.22133820       0.76700581      -0.07210649       0.49479117      -0.16831345
O        1.02997762      -0.95349644       0.35858468       1.02514657      -2.17748921       1.15783613       0.91765562       1.30885491      -0.71746055
H       -1.64987411      -0.03360497      -0.20781516       0.06035346       0.24097807      -0.07716539      -0.11010373      -0.18225629      -0.04756403
H        1.10621852      -1.77409307      -0.10197732       0.24913515      -0.31200356      -0.85106868       0.29465044      -0.59718761      -0.14164016
H       -0.73018253       1.07717868       0.98099365       0.26517714       0.12244966      -0.30806632       0.07115385       0.07085179       0.03716093
H       -0.51047977       1.30379685      -0.87096157      -0.59908483      -0.04677205      -0.16579444      -0.01506045      -0.13466509       0.21905438
H        1.64943794      -0.34141512      -0.12696952      -0.06313614      -0.04850112      -0.52274711      -1.08618924      -0.96038888       0.81876288
7
Lattice="13.0 0.0 0.0 0.0 9.0 0.0 0.0 0.0 9.0" Properties=species:S:1:pos:R:3:momenta:R:3:forces:R:3 EPS_SCF=1e-06 energy=-671.5402120662427 units=gap_units Integrated_spin_density=1.924e-05 opt_dir=/home/tks32/dft_pbe/apr_8_opt_fragments_subset/singlepoint_5_CH3OH time=115.0 free_energy=-671.5402120662427 cutoff=8.0 nneightol=1.2 pbc="T T T"
C       -0.89517901       0.72226490      -0.03207326      -0.93759135       2.22133820       0.76700581      -0.10322296       0.45917539      -0.14269491
O        1.03116107      -0.95179378       0.35767333       1.02514657      -2.17748921       1.15783613       0.80282507       1.09994839      -0.67332751
H       -1.65001762      -0.03383858      -0.20787569       0.06035346       0.24097807      -0.07716539      -0.09145987      -0.16484672      -0.04454513
H        1.10659033      -1.77487057      -0.10217030       0.24913515      -0.31200356      -0.85106868       0.28724908      -0.50253611      -0.09133101
H       -0.73009388       1.07726764       0.98104176       0.26517714       0.12244966      -0.30806632       0.07303511       0.07046248       0.03196943
H       -0.51050172       1.30362280      -0.87067999      -0.59908483      -0.04677205      -0.16579444      -0.00452169      -0.11682345       0.19527988
H        1.64804083      -0.34265242      -0.12591586      -0.06313614      -0.04850112      -0.52274711      -0.96390475      -0.84537998       0.72464923
7
Lattice="13.0 0.0 0.0 0.0 9.0 0.0 0.0 0.0 9.0" Properties=species:S:1:pos:R:3:momenta:R:3:forces:R:3 EPS_SCF=1e-06 energy=-671.5499372044346 units=gap_units Integrated_spin_density=1.924e-05 opt_dir=/home/tks32/dft_pbe/apr_8_opt_fragments_subset/singlepoint_5_CH3OH time=115.0 free_energy=-671.5499372044346 cutoff=8.0 nneightol=1.2 pbc="T T T"
C       -0.89533190       0.72318714      -0.03238007      -0.93759135       2.22133820       0.76700581      -0.14700029       0.40871817      -0.10628507
O        1.03284599      -0.94941217       0.35633328       1.02514657      -2.17748921       1.15783613       0.63486164       0.80883337      -0.60164997
H       -1.65021739      -0.03417609      -0.20796455       0.06035346       0.24097807      -0.07716539      -0.06521754      -0.14015308      -0.04026573
H        1.10714672      -1.77595831      -0.10241449       0.24913515      -0.31200356      -0.85106868       0.27803001      -0.37713098      -0.02575607
H       -0.72995770       1.07740211       0.98110975       0.26517714       0.12244966      -0.30806632       0.07550826       0.06994025       0.02465090
H       -0.51052497       1.30337597      -0.87027581      -0.59908483      -0.04677205      -0.16579444       0.01035793      -0.09144087       0.16140579
H        1.64603925      -0.34441865      -0.12440811      -0.06313614      -0.04850112      -0.52274711      -0.78653999      -0.67876686       0.58790015
7
Lattice="13.0 0.0 0.0 0.0 9.0 0.0 0.0 0.0 9.0" Properties=species:S:1:pos:R:3:momenta:R:3:forces:R:3 EPS_SCF=1e-06 energy=-671.5590148649851 units=gap_units Integrated_spin_density=1.924e-05 opt_dir=/home/tks32/dft_pbe/apr_8_opt_fragments_subset/singlepoint_5_CH3OH time=115.0 free_energy=-671.5590148649851 cutoff=8.0 nneightol=1.2 pbc="T T T"
C       -0.89559970       0.72437912      -0.03275033      -0.93759135       2.22133820       0.76700581      -0.20006445       0.34684948      -0.06149143
O        1.03492466      -0.94655241       0.35459441       1.02514657      -2.17748921       1.15783613       0.42024590       0.45876297      -0.49926256
H       -1.65045494      -0.03460398      -0.20808019       0.06035346       0.24097807      -0.07716539      -0.03333761      -0.10979271      -0.03498654
H        1.10789370      -1.77727125      -0.10265708       0.24913515      -0.31200356      -0.85106868       0.26866557      -0.23674263       0.04592350
H       -0.72976827       1.07758507       0.98119276       0.26517714       0.12244966      -0.30806632       0.07816167       0.06934299       0.01575891
H       -0.51053672       1.30307284      -0.86976910      -0.59908483      -0.04677205      -0.16579444       0.02847436      -0.06014190       0.11954501
H        1.64354127      -0.34660939      -0.12253048      -0.06313614      -0.04850112      -0.52274711      -0.56214544      -0.46827821       0.41451312
7
Lattice="13.0 0.0 0.0 0.0 9.0 0.0 0.0 0.0 9.0" Properties=species:S:1:pos:R:3:momenta:R:3:forces:R:3 EPS_SCF=1e-06 energy=-671.5654160659326 units=gap_units Integrated_spin_density=1.924e-05 opt_dir=/home/tks32/dft_pbe/apr_8_opt_fragments_subset/singlepoint_5_CH3OH time=115.0 free_energy=-671.5654160659326 cutoff=8.0 nneightol=1.2 pbc="T T T"
C       -0.89605666       0.72582630      -0.03314993      -0.93759135       2.22133820       0.76700581      -0.25793248       0.27806351      -0.01159503
O        1.03724908      -0.94348343       0.35249051       1.02514657      -2.17748921       1.15783613       0.17019451       0.07201292      -0.36924083
H       -1.65070472      -0.03510759      -0.20822202       0.06035346       0.24097807      -0.07716539       0.00165467      -0.07583440      -0.02899915
H        1.10885599      -1.77870845      -0.10282583       0.24913515      -0.31200356      -0.85106868       0.26027358      -0.09236865       0.11749308
H       -0.72951341       1.07782458       0.98128449       0.26517714       0.12244966      -0.30806632       0.08042694       0.06872468       0.00604259
H       -0.51051656       1.30273511      -0.86918402      -0.59908483      -0.04677205      -0.16579444       0.04832174      -0.02510013       0.07253507
H        1.64068630      -0.34908652      -0.12039319      -0.06313614      -0.04850112      -0.52274711      -0.30293897      -0.22549792       0.21376427
7
Lattice="13.0 0.0 0.0 0.0 9.0 0.0 0.0 0.0 9.0" Properties=species:S:1:pos:R:3:momenta:R:3:forces:R:3 EPS_SCF=1e-06 energy=-671.5680012048507 units=gap_units Integrated_spin_density=1.924e-05 opt_dir=/home/tks32/dft_pbe/apr_8_opt_fragments_subset/singlepoint_5_CH3OH time=115.0 free_energy=-671.5680012048507 cutoff=8.0 nneightol=1.2 pbc="T T T"
C       -0.89684787       0.72753835      -0.03352666      -0.93759135       2.22133820       0.76700581      -0.31404212       0.20882456       0.03845496
O        1.03959176      -0.94061527       0.35005310       1.02514657      -2.17748921       1.15783613      -0.09605929      -0.31145035      -0.21664073
H       -1.65092709      -0.03567254      -0.20839239       0.06035346       0.24097807      -0.07716539       0.03619493      -0.04114152      -0.02262672
H        1.11010543      -1.78013799      -0.10280464       0.24913515      -0.31200356      -0.85106868       0.25466662       0.03517019       0.17788649
H       -0.72916557       1.07814138       0.98137594       0.26517714       0.12244966      -0.30806632       0.08141413       0.06813007      -0.00337601
H       -0.51042724       1.30239417      -0.86855060      -0.59908483      -0.04677205      -0.16579444       0.06760596       0.01049346       0.02457064
H        1.63767058      -0.35164810      -0.11815474      -0.06313614      -0.04850112      -0.52274711      -0.02978022       0.02997360       0.00173137
7
Lattice="13.0 0.0 0.0 0.0 9.0 0.0 0.0 0.0 9.0" Properties=species:S:1:pos:R:3:momenta:R:3:forces:R:3 EPS_SCF=1e-06 energy=-671.5674182384987 units=gap_units Integrated_spin_density=1.924e-05 opt_dir=/home/tks32/dft_pbe/apr_8_opt_fragments_subset/singlepoint_5_CH3OH time=115.0 free_energy=-671.5674182384987 cutoff=8.0 nneightol=1.2 pbc="T T T"
C       -0.89809611       0.72943571      -0.03380006      -0.93759135       2.22133820       0.76700581      -0.35796869       0.15022501       0.08008197
O        1.04153617      -0.93856565       0.34748958       1.02514657      -2.17748921       1.15783613      -0.33633272      -0.62113944      -0.06140960
H       -1.65106542      -0.03625123      -0.20858435       0.06035346       0.24097807      -0.07716539       0.06453644      -0.01079614      -0.01652207
H        1.11166471      -1.78136453      -0.10248188       0.24913515      -0.31200356      -0.85106868       0.25372256       0.11612920       0.21255961
H       -0.72871352       1.07854281       0.98145248       0.26517714       0.12244966      -0.30806632       0.08013524       0.06759175      -0.01071867
H       -0.51023143       1.30210525      -0.86793858      -0.59908483      -0.04677205      -0.16579444       0.08263236       0.04092958      -0.01674847
H        1.63490560      -0.35390235      -0.11613719      -0.06313614      -0.04850112      -0.52274711       0.21327481       0.25706005      -0.18724278
7
Lattice="13.0 0.0 0.0 0.0 9.0 0.0 0.0 0.0 9.0" Properties=species:S:1:pos:R:3:momenta:R:3:forces:R:3 EPS_SCF=1e-06 energy=-671.5675663668505 units=gap_units Integrated_spin_density=1.924e-05 opt_dir=/home/tks32/dft_pbe/apr_8_opt_fragments_subset/singlepoint_5_CH3OH time=115.0 free_energy=-671.5675663668505 cutoff=8.0 nneightol=1.2 pbc="T T T"
C       -0.89815204       0.72945918      -0.03378755      -0.93759135       2.22133820       0.76700581      -0.35652491       0.15150394       0.07903430
O        1.04148362      -0.93866271       0.34747998       1.02514657      -2.17748921       1.15783613      -0.33195326      -0.61156314      -0.06239433
H       -1.65105534      -0.03625292      -0.20858693       0.06035346       0.24097807      -0.07716539       0.06381807      -0.01132161      -0.01654460
H        1.11170435      -1.78134639      -0.10244867       0.24913515      -0.31200356      -0.85106868       0.25419219       0.11093386       0.20987819
H       -0.72870100       1.07855337       0.98145081       0.26517714       0.12244966      -0.30806632       0.07987980       0.06759327      -0.01046306
H       -0.51021852       1.30211164      -0.86794120      -0.59908483      -0.04677205      -0.16579444       0.08210367       0.04030318      -0.01592253
H        1.63493892      -0.35386218      -0.11616644      -0.06313614      -0.04850112      -0.52274711       0.20848445       0.25255050      -0.18358797
7
Lattice="13.0 0.0 0.0 0.0 9.0 0.0 0.0 0.0 9.0" Properties=species:S:1:pos:R:3:momenta:R:3:forces:R:3 EPS_SCF=1e-06 energy=-671.5678553278761 units=gap_units Integrated_spin_density=1.924e-05 opt_dir=/home/tks32/dft_pbe/apr_8_opt_fragments_subset/singlepoint_5_CH3OH time=115.0 free_energy=-671.5678553278761 cutoff=8.0 nneightol=1.2 pbc="T T T"
C       -0.89826373       0.72950638      -0.03376269      -0.93759135       2.22133820       0.76700581      -0.35365790       0.15403817       0.07695726
O        1.04137920      -0.93885529       0.34746061       1.02514657      -2.17748921       1.15783613      -0.32328131      -0.59258951      -0.06434093
H       -1.65103528      -0.03625639      -0.20859211       0.06035346       0.24097807      -0.07716539       0.06239428      -0.01236226      -0.01658823
H        1.11178377      -1.78131097      -0.10238266       0.24913515      -0.31200356      -0.85106868       0.25512562       0.10063973       0.20456453
H       -0.72867598       1.07857451       0.98144750       0.26517714       0.12244966      -0.30806632       0.07937091       0.06759574      -0.00995611
H       -0.51019277       1.30212433      -0.86794629      -0.59908483      -0.04677205      -0.16579444       0.08105390       0.03906194      -0.01428627
H        1.63500479      -0.35378258      -0.11622436      -0.06313614      -0.04850112      -0.52274711       0.19899450       0.24361618      -0.17635025
7
Lattice="13.0 0.0 0.0 0.0 9.0 0.0 0.0 0.0 9.0" Properties=species:S:1:pos:R:3:momenta:R:3:forces:R:3 EPS_SCF=1e-06 energy=-671.568271070207 units=gap_units Integrated_spin_density=1.924e-05 opt_dir=/home/tks32/dft_pbe/apr_8_opt_fragments_subset/singlepoint_5_CH3OH time=115.0 free_energy=-671.568271070207 cutoff=8.0 nneightol=1.2 pbc="T T T"
C       -0.89843090       0.72957789      -0.03372581      -0.93759135       2.22133820       0.76700581      -0.34940898       0.15777933       0.07388809
O        1.04122429      -0.93914031       0.34743105       1.02514657      -2.17748921       1.15783613      -0.31049332      -0.56458482      -0.06720431
H       -1.65100547      -0.03626184      -0.20859989       0.06035346       0.24097807      -0.07716539       0.06029153      -0.01389690      -0.01664986
H        1.11190334      -1.78126012      -0.10228470       0.24913515      -0.31200356      -0.85106868       0.25651051       0.08544526       0.19671981
H       -0.72863851       1.07860627       0.98144265       0.26517714       0.12244966      -0.30806632       0.07861240       0.06759798      -0.00920645
H       -0.51015432       1.30214312      -0.86795357      -0.59908483      -0.04677205      -0.16579444       0.07949840       0.03722942      -0.01187162
H        1.63510158      -0.35366501      -0.11630973      -0.06313614      -0.04850112      -0.52274711       0.18498946       0.23042973      -0.16567565
7
Lattice="13.0 0.0 0.0 0.0 9.0 0.0 0.0 0.0 9.0" Properties=species:S:1:pos:R:3:momenta:R:3:forces:R:3 EPS_SCF=1e-06 energy=-671.5687938537573 units=gap_units Integrated_spin_density=1.924e-05 opt_dir=/home/tks32/dft_pbe/apr_8_opt_fragments_subset/singlepoint_5_CH3OH time=115.0 free_energy=-671.5687938537573 cutoff=8.0 nneightol=1.2 pbc="T T T"
C       -0.89865332       0.72967474      -0.03367740      -0.93759135       2.22133820       0.76700581      -0.34384053       0.16265336       0.06988339
O        1.04102093      -0.93951309       0.34739060       1.02514657      -2.17748921       1.15783613      -0.29385632      -0.52810949      -0.07091887
H       -1.65096623      -0.03626960      -0.20861032       0.06035346       0.24097807      -0.07716539       0.05755020      -0.01589292      -0.01672454
H        1.11206377      -1.78119676      -0.10215602       0.24913515      -0.31200356      -0.85106868       0.25832721       0.06565572       0.18649995
H       -0.72858859       1.07864878       0.98143638       0.26517714       0.12244966      -0.30806632       0.07760966       0.06759810      -0.00822714
H       -0.51010335       1.30216769      -0.86796257      -0.59908483      -0.04677205      -0.16579444       0.07746046       0.03484155      -0.00872746
H        1.63522678      -0.35351175      -0.11642068      -0.06313614      -0.04850112      -0.52274711       0.16674931       0.21325368      -0.15178532
7
Lattice="13.0 0.0 0.0 0.0 9.0 0.0 0.0 0.0 9.0" Properties=species:S:1:pos:R:3:momenta:R:3:forces:R:3 EPS_SCF=1e-06 energy=-671.5693997963973 units=gap_units Integrated_spin_density=1.924e-05 opt_dir=/home/tks32/dft_pbe/apr_8_opt_fragments_subset/singlepoint_5_CH3OH time=115.0 free_energy=-671.5693997963973 cutoff=8.0 nneightol=1.2 pbc="T T T"
C       -0.89893082       0.72979848      -0.03361812      -0.93759135       2.22133820       0.76700581      -0.33703634       0.16855940       0.06501970
O        1.04077183      -0.93996735       0.34733825       1.02514657      -2.17748921       1.15783613      -0.27372856      -0.48392558      -0.07540100
H       -1.65091796      -0.03628017      -0.20862346       0.06035346       0.24097807      -0.07716539       0.05422519      -0.01830562      -0.01680523
H        1.11226625      -1.78112498      -0.10199827       0.24913515      -0.31200356      -0.85106868       0.26054762       0.04168884       0.17411880
H       -0.72852622       1.07870224       0.98142890       0.26517714       0.12244966      -0.30806632       0.07636961       0.06759345      -0.00703573
H       -0.51004005       1.30219764      -0.86797262      -0.59908483      -0.04677205      -0.16579444       0.07497148       0.03194707      -0.00492019
H        1.63537696      -0.35332586      -0.11655467      -0.06313614      -0.04850112      -0.52274711       0.14465100       0.19244245      -0.13497635
7
Lattice="13.0 0.0 0.0 0.0 9.0 0.0 0.0 0.0 9.0" Properties=species:S:1:pos:R:3:momenta:R:3:forces:R:3 EPS_SCF=1e-06 energy=-671.5700628274597 units=gap_units Integrated_spin_density=1.924e-05 opt_dir=/home/tks32/dft_pbe/apr_8_opt_fragments_subset/singlepoint_5_CH3OH time=115.0 free_energy=-671.5700628274597 cutoff=8.0 nneightol=1.2 pbc="T T T"
C       -0.89926340       0.72995128      -0.03354878      -0.93759135       2.22133820       0.76700581      -0.32910270       0.17536806       0.05939441
O        1.04048035      -0.94049514       0.34727260       1.02514657      -2.17748921       1.15783613      -0.25056111      -0.43300769      -0.08055191
H       -1.65086120      -0.03629418      -0.20863943       0.06035346       0.24097807      -0.07716539       0.05038681      -0.02107730      -0.01688254
H        1.11251253      -1.78105012      -0.10181350       0.24913515      -0.31200356      -0.85106868       0.26313380       0.01408270       0.15985262
H       -0.72845131       1.07876696       0.98142043       0.26517714       0.12244966      -0.30806632       0.07490054       0.06758051      -0.00565451
H       -0.50996465       1.30223245      -0.86798289      -0.59908483      -0.04677205      -0.16579444       0.07207144       0.02860817      -0.00053477
H        1.63554768      -0.35311126      -0.11670844      -0.06313614      -0.04850112      -0.52274711       0.11917122       0.16844557      -0.11562330
7
Lattice="13.0 0.0 0.0 0.0 9.0 0.0 0.0 0.0 9.0" Properties=species:S:1:pos:R:3:momenta:R:3:forces:R:3 EPS_SCF=1e-06 energy=-671.5707569489658 units=gap_units Integrated_spin_density=1.924e-05 opt_dir=/home/tks32/dft_pbe/apr_8_opt_fragments_subset/singlepoint_5_CH3OH time=115.0 free_energy=-671.5707569489658 cutoff=8.0 nneightol=1.2 pbc="T T T"
C       -0.89965132       0.73013600      -0.03347039      -0.93759135       2.22133820       0.76700581      -0.32017052       0.18291870       0.05312743
O        1.04015058      -0.94108669       0.34719184       1.02514657      -2.17748921       1.15783613      -0.22490184      -0.37656060      -0.08626053
H       -1.65079655      -0.03631245      -0.20865834       0.06035346       0.24097807      -0.07716539       0.04612230      -0.02413589      -0.01694445
H        1.11280500      -1.78097896      -0.10160418       0.24913515      -0.31200356      -0.85106868       0.26603587      -0.01649258       0.14404659
H       -0.72836373       1.07884341       0.98141128       0.26517714       0.12244966      -0.30806632       0.07321233       0.06755485      -0.00411080
H       -0.50987740       1.30227148      -0.86799226      -0.59908483      -0.04677205      -0.16579444       0.06880968       0.02490164       0.00432376
H        1.63573340      -0.35287278      -0.11687795      -0.06313614      -0.04850112      -0.52274711       0.09089219       0.14181389      -0.09418200
7
Lattice="13.0 0.0 0.0 0.0 9.0 0.0 0.0 0.0 9.0" Properties=species:S:1:pos:R:3:momenta:R:3:forces:R:3 EPS_SCF=1e-06 energy=-671.5715323302306 units=gap_units Integrated_spin_density=1.924e-05 opt_dir=/home/tks32/dft_pbe/apr_8_opt_fragments_subset/singlepoint_5_CH3OH time=115.0 free_energy=-671.5715323302306 cutoff=8.0 nneightol=1.2 pbc="T T T"
C       -0.90014481       0.73038142      -0.03337462      -0.93759135       2.22133820       0.76700581      -0.30932134       0.19190077       0.04562239
O        1.03974722      -0.94180108       0.34708239       1.02514657      -2.17748921       1.15783613      -0.19439843      -0.30942852      -0.09307729
H       -1.65071677      -0.03633880      -0.20868286       0.06035346       0.24097807      -0.07716539       0.04103641      -0.02774807      -0.01697773
H        1.11318550      -1.78091415      -0.10134770       0.24913515      -0.31200356      -0.85106868       0.26953695      -0.05279462       0.12527422
H       -0.72825200       1.07894218       0.98140083       0.26517714       0.12244966      -0.30806632       0.07110543       0.06750545      -0.00225404