7
Lattice="13.0 0.0 0.0 0.0 9.0 0.0 0.0 0.0 9.0" Properties=species:S:1:pos:R:3:momenta:R:3:forces:R:3 EPS_SCF=1e-06 energy=-671.2992641232987 units=gap_units Integrated_spin_density=1.924e-05 opt_dir=/home/tks32/dft_pbe/apr_8_opt_fragments_subset/singlepoint_5_CH3OH time=105.0 free_energy=-671.2992641232987 cutoff=8.0 nneightol=1.2 pbc="T T T"
C       -0.79020791       0.58482475      -0.03774049      -0.59160075       1.73071550       0.21142542       0.00942501       0.35390001      -0.18710394
O        1.03010132      -0.62913432       0.43320743       1.35682353      -1.56554810       1.66615584       0.97374975      -0.38440699      -2.78019877
H       -1.48358002      -0.22110699      -0.32933485       0.00977539       0.24831776      -0.20667807       0.07132385       0.14838515      -0.01675557
H        0.79993226      -1.52711533       0.04978168       0.19558540      -0.30427199      -0.59841680       0.35462007       0.57307459       0.71391881
H       -0.87134860       0.95620059       0.99365407       0.07209681       0.25937405      -0.21947748       0.09635295      -0.00598171      -0.05211577
H       -0.44368592       1.29199249      -0.82699626      -0.51874471       0.00229565      -0.07323293      -0.16892112      -0.43331672       0.44537265
H        1.75878887      -0.45566119      -0.28257159      -0.52393567      -0.37088287      -0.77977598      -1.33655052      -0.25165435       1.87688257
7
Lattice="13.0 0.0 0.0 0.0 9.0 0.0 0.0 0.0 9.0" Properties=species:S:1:pos:R:3:momenta:R:3:forces:R:3 EPS_SCF=1e-06 energy=-671.4056186393077 units=gap_units Integrated_spin_density=1.924e-05 opt_dir=/home/tks32/dft_pbe/apr_8_opt_fragments_subset/singlepoint_5_CH3OH time=105.0 free_energy=-671.4056186393077 cutoff=8.0 nneightol=1.2 pbc="T T T"
C       -0.79011366       0.58836375      -0.03961153      -0.59160075       1.73071550       0.21142542      -0.35410506       0.22830207       0.04327358
O        1.03983882      -0.63297839       0.40540544       1.35682353      -1.56554810       1.66615584       0.03136236      -0.12468215      -1.16944224
H       -1.48286678      -0.21962314      -0.32950241       0.00977539       0.24831776      -0.20667807       0.08065308       0.17970439      -0.01757373
H        0.80347846      -1.52138458       0.05692087       0.19558540      -0.30427199      -0.59841680       0.22404158      -0.11051730       0.41216426
H       -0.87038507       0.95614077       0.99313291       0.07209681       0.25937405      -0.21947748       0.09308359       0.00624538      -0.07073692
H       -0.44537513       1.28765932      -0.82254253      -0.51874471       0.00229565      -0.07323293      -0.05897045      -0.18986947       0.18753084
H        1.74542336      -0.45817773      -0.26380276      -0.52393567      -0.37088287      -0.77977598      -0.01606511       0.01081709       0.61478421
7
Lattice="13.0 0.0 0.0 0.0 9.0 0.0 0.0 0.0 9.0" Properties=species:S:1:pos:R:3:momenta:R:3:forces:R:3 EPS_SCF=1e-06 energy=-671.3880285451488 units=gap_units Integrated_spin_density=1.924e-05 opt_dir=/home/tks32/dft_pbe/apr_8_opt_fragments_subset/singlepoint_5_CH3OH time=105.0 free_energy=-671.3880285451488 cutoff=8.0 nneightol=1.2 pbc="T T T"
C       -0.79449696       0.59442958      -0.04074944      -0.59160075       1.73071550       0.21142542      -0.67245692       0.08116835       0.26592648
O        1.04899830      -0.63801130       0.36562755       1.35682353      -1.56554810       1.66615584      -1.69327023       0.12392172       1.18403014
H       -1.48120718      -0.21602015      -0.32987495       0.00977539       0.24831776      -0.20667807       0.02314630       0.15094494      -0.02746944
H        0.80949701      -1.51762143       0.06854685       0.19558540      -0.30427199      -0.59841680       0.09448080      -0.94952144       0.03580484
H       -0.86834336       0.95616574       0.99177131       0.07209681       0.25937405      -0.21947748       0.06923670       0.04371367      -0.02182611
H       -0.44763951       1.28136369      -0.81616790      -0.51874471       0.00229565      -0.07323293       0.07172557       0.12325802      -0.13004871
H        1.73319170      -0.46030613      -0.23915343      -0.52393567      -0.37088287      -0.77977598       2.10713777       0.42651474      -1.30641720
7
Lattice="13.0 0.0 0.0 0.0 9.0 0.0 0.0 0.0 9.0" Properties=species:S:1:pos:R:3:momenta:R:3:forces:R:3 EPS_SCF=1e-06 energy=-671.4137684760927 units=gap_units Integrated_spin_density=1.924e-05 opt_dir=/home/tks32/dft_pbe/apr_8_opt_fragments_subset/singlepoint_5_CH3OH time=105.0 free_energy=-671.4137684760927 cutoff=8.0 nneightol=1.2 pbc="T T T"
C       -0.79617810       0.59463250      -0.04008462      -0.59160075       1.73071550       0.21142542      -0.56637800       0.09820791       0.20936726
O        1.04476512      -0.63770150       0.36858763       1.35682353      -1.56554810       1.66615584      -1.18736572       0.21039421       0.66296298
H       -1.48114931      -0.21564279      -0.32994363       0.00977539       0.24831776      -0.20667807      -0.00690469       0.12399723      -0.03107057
H        0.80973322      -1.51999523       0.06863637       0.19558540      -0.30427199      -0.59841680       0.10898225      -0.86201564       0.05961577
H       -0.86817027       0.95627503       0.99171674       0.07209681       0.25937405      -0.21947748       0.05768743       0.05275464       0.00702078
H       -0.44746020       1.28167183      -0.81649302      -0.51874471       0.00229565      -0.07323293       0.04982300       0.09326015      -0.09204651
H        1.73845954      -0.45923985      -0.24241947      -0.52393567      -0.37088287      -0.77977598       1.54415572       0.28340149      -0.81584972
7
Lattice="13.0 0.0 0.0 0.0 9.0 0.0 0.0 0.0 9.0" Properties=species:S:1:pos:R:3:momenta:R:3:forces:R:3 EPS_SCF=1e-06 energy=-671.4408412540957 units=gap_units Integrated_spin_density=1.924e-05 opt_dir=/home/tks32/dft_pbe/apr_8_opt_fragments_subset/singlepoint_5_CH3OH time=105.0 free_energy=-671.4408412540957 cutoff=8.0 nneightol=1.2 pbc="T T T"
C       -0.79930508       0.59509499      -0.03888967      -0.59160075       1.73071550       0.21142542      -0.37726892       0.12605884       0.11037984
O        1.03757173      -0.63682313       0.37314088       1.35682353      -1.56554810       1.66615584      -0.57762279       0.26277791      -0.01287292
H       -1.48111691      -0.21494982      -0.33009397       0.00977539       0.24831776      -0.20667807      -0.05878062       0.07667507      -0.03683715
H        0.81025635      -1.52458806       0.06888681       0.19558540      -0.30427199      -0.59841680       0.14064754      -0.67951102       0.10912106
H       -0.86785010       0.95652371       0.99168764       0.07209681       0.25937405      -0.21947748       0.03772674       0.06793211       0.05643249
H       -0.44715684       1.28221492      -0.81704793      -0.51874471       0.00229565      -0.07323293       0.01033140       0.04173590      -0.02542504
H        1.74760085      -0.45747260      -0.24768377      -0.52393567      -0.37088287      -0.77977598       0.82496665       0.10433118      -0.20079827
7
Lattice="13.0 0.0 0.0 0.0 9.0 0.0 0.0 0.0 9.0" Properties=species:S:1:pos:R:3:momenta:R:3:forces:R:3 EPS_SCF=1e-06 energy=-671.4518594972002 units=gap_units Integrated_spin_density=1.924e-05 opt_dir=/home/tks32/dft_pbe/apr_8_opt_fragments_subset/singlepoint_5_CH3OH time=105.0 free_energy=-671.4518594972002 cutoff=8.0 nneightol=1.2 pbc="T T T"
C       -0.80347898       0.59596551      -0.03741643      -0.59160075       1.73071550       0.21142542      -0.14573986       0.14951526      -0.00281005
O        1.02901603      -0.63508560       0.37719242       1.35682353      -1.56554810       1.66615584       0.01833969       0.23981976      -0.71715149
H       -1.48129958      -0.21404982      -0.33036204       0.00977539       0.24831776      -0.20667807      -0.11834621       0.02199076      -0.04182583
H        0.81123405      -1.53117045       0.06950546       0.19558540      -0.30427199      -0.59841680       0.18929469      -0.40361279       0.18251725
H       -0.86742598       0.95699235       0.99186482       0.07209681       0.25937405      -0.21947748       0.01381982       0.08442779       0.11077072
H       -0.44684659       1.28285410      -0.81763897      -0.51874471       0.00229565      -0.07323293      -0.03801391      -0.01466204       0.05133651
H        1.75880106      -0.45550609      -0.25314527      -0.52393567      -0.37088287      -0.77977598       0.08064578      -0.07747874       0.41716290
7
Lattice="13.0 0.0 0.0 0.0 9.0 0.0 0.0 0.0 9.0" Properties=species:S:1:pos:R:3:momenta:R:3:forces:R:3 EPS_SCF=1e-06 energy=-671.4525247567385 units=gap_units Integrated_spin_density=1.924e-05 opt_dir=/home/tks32/dft_pbe/apr_8_opt_fragments_subset/singlepoint_5_CH3OH time=105.0 free_energy=-671.4525247567385 cutoff=8.0 nneightol=1.2 pbc="T T T"
C       -0.80357007       0.59605896      -0.03741818      -0.59160075       1.73071550       0.21142542      -0.14734545       0.14636509       0.00006934
O        1.02902749      -0.63493571       0.37674420       1.35682353      -1.56554810       1.66615584       0.00137558       0.22762077      -0.70539205
H       -1.48137355      -0.21403608      -0.33038818       0.00977539       0.24831776      -0.20667807      -0.11744314       0.02329703      -0.04109890
H        0.81135236      -1.53142271       0.06961953       0.19558540      -0.30427199      -0.59841680       0.19161347      -0.39415284       0.18459456
H       -0.86741735       0.95704511       0.99193405       0.07209681       0.25937405      -0.21947748       0.01350399       0.08406203       0.10889652
H       -0.44687035       1.28284494      -0.81760689      -0.51874471       0.00229565      -0.07323293      -0.03742338      -0.01235828       0.04939328
H        1.75885146      -0.45555452      -0.25288455      -0.52393567      -0.37088287      -0.77977598       0.09571892      -0.07483380       0.40353725
7
Lattice="13.0 0.0 0.0 0.0 9.0 0.0 0.0 0.0 9.0" Properties=species:S:1:pos:R:3:momenta:R:3:forces:R:3 EPS_SCF=1e-06 energy=-671.4538072379692 units=gap_units Integrated_spin_density=1.924e-05 opt_dir=/home/tks32/dft_pbe/apr_8_opt_fragments_subset/singlepoint_5_CH3OH time=105.0 free_energy=-671.4538072379692 cutoff=8.0 nneightol=1.2 pbc="T T T"
C       -0.80375352       0.59624386      -0.03741971      -0.59160075       1.73071550       0.21142542      -0.15033205       0.14020630       0.00562604
O        1.02903876      -0.63464405       0.37585502       1.35682353      -1.56554810       1.66615584      -0.03154466       0.20410406      -0.68251105
H       -1.48152100      -0.21400766      -0.33044001       0.00977539       0.24831776      -0.20667807      -0.11571263       0.02583405      -0.03966311
H        0.81159079      -1.53192118       0.06984932       0.19558540      -0.30427199      -0.59841680       0.19608699      -0.37583611       0.18851910
H       -0.86740027       0.95715049       0.99207135       0.07209681       0.25937405      -0.21947748       0.01285878       0.08334732       0.10523679
H       -0.44691750       1.28282818      -0.81754400      -0.51874471       0.00229565      -0.07323293      -0.03630706      -0.00788248       0.04564837
H        1.75896274      -0.45564963      -0.25237199      -0.52393567      -0.37088287      -0.77977598       0.12495063      -0.06977313       0.37714385
7
Lattice="13.0 0.0 0.0 0.0 9.0 0.0 0.0 0.0 9.0" Properties=species:S:1:pos:R:3:momenta:R:3:forces:R:3 EPS_SCF=1e-06 energy=-671.4556223440477 units=gap_units Integrated_spin_density=1.924e-05 opt_dir=/home/tks32/dft_pbe/apr_8_opt_fragments_subset/singlepoint_5_CH3OH time=105.0 free_energy=-671.4556223440477 cutoff=8.0 nneightol=1.2 pbc="T T T"
C       -0.80403222       0.59651621      -0.03741684      -0.59160075       1.73071550       0.21142542      -0.15423032       0.13133031       0.01344086
O        1.02902506      -0.63422734       0.37453905       1.35682353      -1.56554810       1.66615584      -0.07828928       0.17111044      -0.64985314
H       -1.48174114      -0.21396257      -0.33051663       0.00977539       0.24831776      -0.20667807      -0.11331176       0.02944545      -0.03755472
H        0.81195355      -1.53265379       0.07019858       0.19558540      -0.30427199      -0.59841680       0.20237409      -0.34992234       0.19382065
H       -0.86737519       0.95730832       0.99227444       0.07209681       0.25937405      -0.21947748       0.01185443       0.08231833       0.09997438
H       -0.44698737       1.28280714      -0.81745290      -0.51874471       0.00229565      -0.07323293      -0.03480091      -0.00150588       0.04039530
H        1.75915731      -0.45578796      -0.25162571      -0.52393567      -0.37088287      -0.77977598       0.16640374      -0.06277631       0.33977668
7
Lattice="13.0 0.0 0.0 0.0 9.0 0.0 0.0 0.0 9.0" Properties=species:S:1:pos:R:3:momenta:R:3:forces:R:3 EPS_SCF=1e-06 energy=-671.4578701971019 units=gap_units Integrated_spin_density=1.924e-05 opt_dir=/home/tks32/dft_pbe/apr_8_opt_fragments_subset/singlepoint_5_CH3OH time=105.0 free_energy=-671.4578701971019 cutoff=8.0 nneightol=1.2 pbc="T T T"
C       -0.80441060       0.59686994      -0.03740314      -0.59160075       1.73071550       0.21142542      -0.15832317       0.12017934       0.02287575
O        1.02894798      -0.63371079       0.37281724       1.35682353      -1.56554810       1.66615584      -0.13552116       0.13145871      -0.60952949
H       -1.48203297      -0.21389763      -0.33061664       0.00977539       0.24831776      -0.20667807      -0.11047894       0.03389345      -0.03482807
H        0.81244740      -1.53360253       0.07067321       0.19558540      -0.30427199      -0.59841680       0.20995440      -0.31833917       0.19980403
H       -0.86734281       0.95751843       0.99253990       0.07209681       0.25937405      -0.21947748       0.01044449       0.08102796       0.09338709
H       -0.44707904       1.28278696      -0.81733751      -0.51874471       0.00229565      -0.07323293      -0.03311424       0.00636031       0.03408082
H        1.75947004      -0.45596437      -0.25067307      -0.52393567      -0.37088287      -0.77977598       0.21703862      -0.05458059       0.29420986
7
Lattice="13.0 0.0 0.0 0.0 9.0 0.0 0.0 0.0 9.0" Properties=species:S:1:pos:R:3:momenta:R:3:forces:R:3 EPS_SCF=1e-06 energy=-671.460462147196 units=gap_units Integrated_spin_density=1.924e-05 opt_dir=/home/tks32/dft_pbe/apr_8_opt_fragments_subset/singlepoint_5_CH3OH time=105.0 free_energy=-671.460462147196 cutoff=8.0 nneightol=1.2 pbc="T T T"
C       -0.80489394       0.59729669      -0.03737018      -0.59160075       1.73071550       0.21142542      -0.16166818       0.10733758       0.03309085
O        1.02875638      -0.63312733       0.37071783       1.35682353      -1.56554810       1.66615584      -0.19868860       0.08887575      -0.56444317
H       -1.48239527      -0.21380862      -0.33073807       0.00977539       0.24831776      -0.20667807      -0.10752537       0.03886475      -0.03155565
H        0.81308124      -1.53474353       0.07128059       0.19558540      -0.30427199      -0.59841680       0.21814244      -0.28363327       0.20559532
H       -0.86730425       0.95778062       0.99286305       0.07209681       0.25937405      -0.21947748       0.00856864       0.07954626       0.08584252
H       -0.44719141       1.28277454      -0.81720291      -0.51874471       0.00229565      -0.07323293      -0.03152520       0.01517451       0.02729331
H        1.75994726      -0.45617237      -0.24955032      -0.52393567      -0.37088287      -0.77977598       0.27269628      -0.04616558       0.24417682
7
Lattice="13.0 0.0 0.0 0.0 9.0 0.0 0.0 0.0 9.0" Properties=species:S:1:pos:R:3:momenta:R:3:forces:R:3 EPS_SCF=1e-06 energy=-671.4633448083094 units=gap_units Integrated_spin_density=1.924e-05 opt_dir=/home/tks32/dft_pbe/apr_8_opt_fragments_subset/singlepoint_5_CH3OH time=105.0 free_energy=-671.4633448083094 cutoff=8.0 nneightol=1.2 pbc="T T T"
C       -0.80548685       0.59778561      -0.03730819      -0.59160075       1.73071550       0.21142542      -0.16316415       0.09350202       0.04309624
O        1.02838988      -0.63251540       0.36827707       1.35682353      -1.56554810       1.66615584      -0.26219902       0.04776219      -0.51820522
H       -1.48282636      -0.21369055      -0.33087817       0.00977539       0.24831776      -0.20667807      -0.10481184       0.04398882      -0.02782757
H        0.81386475      -1.53604746       0.07202803       0.19558540      -0.30427199      -0.59841680       0.22613187      -0.24881041       0.21023148
H       -0.86726118       0.95809429       0.99323773       0.07209681       0.25937405      -0.21947748       0.00616111       0.07795697       0.07778023
H       -0.44732333       1.28277818      -0.81705512      -0.51874471       0.00229565      -0.07323293      -0.03036365       0.02429381       0.02072691
H        1.76064310      -0.45640466      -0.24830135      -0.52393567      -0.37088287      -0.77977598       0.32824569      -0.03869340       0.19419792
7
Lattice="13.0 0.0 0.0 0.0 9.0 0.0 0.0 0.0 9.0" Properties=species:S:1:pos:R:3:momenta:R:3:forces:R:3 EPS_SCF=1e-06 energy=-671.4665119800259 units=gap_units Integrated_spin_density=1.924e-05 opt_dir=/home/tks32/dft_pbe/apr_8_opt_fragments_subset/singlepoint_5_CH3OH time=105.0 free_energy=-671.4665119800259 cutoff=8.0 nneightol=1.2 pbc="T T T"
C       -0.80619105       0.59832338      -0.03720735      -0.59160075       1.73071550       0.21142542      -0.16167842       0.07941702       0.05185671
O        1.02778590      -0.63191473       0.36553862       1.35682353      -1.56554810       1.66615584      -0.31992092       0.01270866      -0.47483714
H       -1.48332392      -0.21353830      -0.33103336       0.00977539       0.24831776      -0.20667807      -0.10270475       0.04887563      -0.02374757
H        0.81480632      -1.53748111       0.07292053       0.19558540      -0.30427199      -0.59841680       0.23308518      -0.21700543       0.21280090
H       -0.86721597       0.95845809       0.99365625       0.07209681       0.25937405      -0.21947748       0.00316450       0.07634942       0.06967168
H       -0.44747381       1.28280685      -0.81690044      -0.51874471       0.00229565      -0.07323293      -0.02997587       0.03303534       0.01510886
H        1.76161252      -0.45665418      -0.24697426      -0.52393567      -0.37088287      -0.77977598       0.37803028      -0.03338064       0.14914656
7
Lattice="13.0 0.0 0.0 0.0 9.0 0.0 0.0 0.0 9.0" Properties=species:S:1:pos:R:3:momenta:R:3:forces:R:3 EPS_SCF=1e-06 energy=-671.4703867807006 units=gap_units Integrated_spin_density=1.924e-05 opt_dir=/home/tks32/dft_pbe/apr_8_opt_fragments_subset/singlepoint_5_CH3OH time=105.0 free_energy=-671.4703867807006 cutoff=8.0 nneightol=1.2 pbc="T T T"
C       -0.80709582       0.59895776      -0.03704093      -0.59160075       1.73071550       0.21142542      -0.15541286       0.06434684       0.05901795
O        1.02677718      -0.63130375       0.36221783       1.35682353      -1.56554810       1.66615584      -0.37024935      -0.01428526      -0.43475390
H       -1.48394838      -0.21332481      -0.33121748       0.00977539       0.24831776      -0.20667807      -0.10144153       0.05359530      -0.01894991
H        0.81603778      -1.53917907       0.07407734       0.19558540      -0.30427199      -0.59841680       0.23871272      -0.18855771       0.21244137
H       -0.86716715       0.95891629       0.99416005       0.07209681       0.25937405      -0.21947748      -0.00087416       0.07464519       0.06115945
H       -0.44766127       1.28287765      -0.81672790      -0.51874471       0.00229565      -0.07323293      -0.03081104       0.04153190       0.01076026
H        1.76305767      -0.45694406      -0.24546892      -0.52393567      -0.37088287      -0.77977598       0.42007620      -0.03127626       0.11032478
7
Lattice="13.0 0.0 0.0 0.0 9.0 0.0 0.0 0.0 9.0" Properties=species:S:1:pos:R:3:momenta:R:3:forces:R:3 EPS_SCF=1e-06 energy=-671.4751875657759 units=gap_units Integrated_spin_density=1.924e-05 opt_dir=/home/tks32/dft_pbe/apr_8_opt_fragments_subset/singlepoint_5_CH3OH time=105.0 free_energy=-671.4751875657759 cutoff=8.0 nneightol=1.2 pbc="T T T"
C       -0.80823480       0.59968679      -0.03678398      -0.59160075       1.73071550       0.21142542      -0.14204587       0.04894405       0.06304729
O        1.02520026      -0.63072048       0.35824888       1.35682353      -1.56554810       1.66615584      -0.40372529      -0.02646618      -0.40409058
H       -1.48472542      -0.21302967      -0.33142951       0.00977539       0.24831776      -0.20667807      -0.10156995       0.05767040      -0.01342701
H        0.81763039      -1.54115586       0.07555503       0.19558540      -0.30427199      -0.59841680       0.24181669      -0.16752510       0.20785279
H       -0.86712013       0.95948677       0.99475471       0.07209681       0.25937405      -0.21947748      -0.00620318       0.07292385       0.05272188
H       -0.44789509       1.28301257      -0.81654013      -0.51874471       0.00229565      -0.07323293      -0.03355170       0.04890052       0.00880434
H        1.76514479      -0.45728011      -0.24380500      -0.52393567      -0.37088287      -0.77977598       0.44527931      -0.03444755       0.08509129
7
Lattice="13.0 0.0 0.0 0.0 9.0 0.0 0.0 0.0 9.0" Properties=species:S:1:pos:R:3:momenta:R:3:forces:R:3 EPS_SCF=1e-06 energy=-671.4811634472188 units=gap_units Integrated_spin_density=1.924e-05 opt_dir=/home/tks32/dft_pbe/apr_8_opt_fragments_subset/singlepoint_5_CH3OH time=105.0 free_energy=-671.4811634472188 cutoff=8.0 nneightol=1.2 pbc="T T T"
C       -0.80963356       0.60050271      -0.03640980      -0.59160075       1.73071550       0.21142542      -0.11913905       0.03378340       0.06241234
O        1.02287201      -0.63019183       0.35354660       1.35682353      -1.56554810       1.66615584      -0.41020961      -0.01742872      -0.38960009
H       -1.48568850      -0.21262776      -0.33166528       0.00977539       0.24831776      -0.20667807      -0.10357695       0.06064829      -0.00717332
H        0.81966796      -1.54343408       0.07741432       0.19558540      -0.30427199      -0.59841680       0.24125141      -0.15754854       0.19810191
H       -0.86708521       0.96019073       0.99544444       0.07209681       0.25937405      -0.21947748      -0.01305214       0.07125072       0.04482345
H       -0.44819055       1.28323893      -0.81633717      -0.51874471       0.00229565      -0.07323293      -0.03893591       0.05422835       0.01038774
H        1.76805785      -0.45767870      -0.24199313      -0.52393567      -0.37088287      -0.77977598       0.44366225      -0.04493350       0.08104797
7
Lattice="13.0 0.0 0.0 0.0 9.0 0.0 0.0 0.0 9.0" Properties=species:S:1:pos:R:3:momenta:R:3:forces:R:3 EPS_SCF=1e-06 energy=-671.4885131543183 units=gap_units Integrated_spin_density=1.924e-05 opt_dir=/home/tks32/dft_pbe/apr_8_opt_fragments_subset/singlepoint_5_CH3OH time=105.0 free_energy=-671.4885131543183 cutoff=8.0 nneightol=1.2 pbc="T T T"
C       -0.81129840       0.60139126      -0.03589380      -0.59160075       1.73071550       0.21142542      -0.08467331       0.01899350       0.05608202
O        1.01961087      -0.62970703       0.34797506       1.35682353      -1.56554810       1.66615584      -0.38186223       0.01628144      -0.39679647
H       -1.48688462      -0.21208831      -0.33191605       0.00977539       0.24831776      -0.20667807      -0.10767378       0.06230041      -0.00015276
H        0.82224968      -1.54606128       0.07971919       0.19558540      -0.30427199      -0.59841680       0.23631427      -0.16001964       0.18321060
H       -0.86708071       0.96105471       0.99623318       0.07209681       0.25937405      -0.21947748      -0.02157505       0.06962508       0.03769558
H       -0.44857405       1.28358916      -0.81611155      -0.51874471       0.00229565      -0.07323293      -0.04760560       0.05686195       0.01633886
H        1.77197722      -0.45817851      -0.24000604      -0.52393567      -0.37088287      -0.77977598       0.40707569      -0.06404273       0.10362217
7
Lattice="13.0 0.0 0.0 0.0 9.0 0.0 0.0 0.0 9.0" Properties=species:S:1:pos:R:3:momenta:R:3:forces:R:3 EPS_SCF=1e-06 energy=-671.4973112923706 units=gap_units Integrated_spin_density=1.924e-05 opt_dir=/home/tks32/dft_pbe/apr_8_opt_fragments_subset/singlepoint_5_CH3OH time=105.0 free_energy=-671.4973112923706 cutoff=8.0 nneightol=1.2 pbc="T T T"
C       -0.81319596       0.60232909      -0.03522035      -0.59160075       1.73071550       0.21142542      -0.03798554       0.00376154       0.04431103
O        1.01527614      -0.62917842       0.34130031       1.35682353      -1.56554810       1.66615584      -0.31809165       0.07104688      -0.42695190
H       -1.48838188      -0.21137374      -0.33216584       0.00977539       0.24831776      -0.20667807      -0.11348587       0.06293310       0.00774151
H        0.82549260      -1.54913123       0.08253496       0.19558540      -0.30427199      -0.59841680       0.22727378      -0.17128865       0.16492611
H       -0.86713793       0.96211291       0.99712526       0.07209681       0.25937405      -0.21947748      -0.03175823       0.06790167       0.03100500
H       -0.44909153       1.28410003      -0.81584049      -0.51874471       0.00229565      -0.07323293      -0.05983503       0.05685071       0.02662059
H        1.77703857      -0.45885864      -0.23773386      -0.52393567      -0.37088287      -0.77977598       0.33388253      -0.09120525       0.15234767
7
Lattice="13.0 0.0 0.0 0.0 9.0 0.0 0.0 0.0 9.0" Properties=species:S:1:pos:R:3:momenta:R:3:forces:R:3 EPS_SCF=1e-06 energy=-671.507571405023 units=gap_units Integrated_spin_density=1.924e-05 opt_dir=/home/tks32/dft_pbe/apr_8_opt_fragments_subset/singlepoint_5_CH3OH time=105.0 free_energy=-671.507571405023 cutoff=8.0 nneightol=1.2 pbc="T T T"
C       -0.81521977       0.60327596      -0.03439253      -0.59160075       1.73071550       0.21142542       0.01881997      -0.01417239       0.02962863
O        1.00983098      -0.62839977       0.33313907       1.35682353      -1.56554810       1.66615584      -0.23194192       0.13117364      -0.47327596
H       -1.49027555      -0.21043882      -0.33238697       0.00977539       0.24831776      -0.20667807      -0.11971000       0.06376867       0.01670776
H        0.82952823      -1.55279573       0.08592385       0.19558540      -0.30427199      -0.59841680       0.21572719      -0.17944817       0.14736542
H       -0.86730775       0.96340754       0.99812341       0.07209681       0.25937405      -0.21947748      -0.04328889       0.06569917       0.02347328
H       -0.44981926       1.28481057      -0.81547608      -0.51874471       0.00229565      -0.07323293      -0.07511963       0.05548269       0.03961610
H        1.78326311      -0.45985976      -0.23493076      -0.52393567      -0.37088287      -0.77977598       0.23551328      -0.12250361       0.21648476
7
Lattice="13.0 0.0 0.0 0.0 9.0 0.0 0.0 0.0 9.0" Properties=species:S:1:pos:R:3:momenta:R:3:forces:R:3 EPS_SCF=1e-06 energy=-671.5195077654589 units=gap_units Integrated_spin_density=1.924e-05 opt_dir=/home/tks32/dft_pbe/apr_8_opt_fragments_subset/singlepoint_5_CH3OH time=105.0 free_energy=-671.5195077654589 cutoff=8.0 nneightol=1.2 pbc="T T T"
C       -0.81715455       0.60415786      -0.03343886      -0.59160075       1.73071550       0.21142542       0.07962859      -0.03824690       0.01719105
O        1.00339696      -0.62705367       0.32294955       1.35682353      -1.56554810       1.66615584      -0.15278731       0.16793158      -0.51893057
H       -1.49268285      -0.20923003      -0.33253467       0.00977539       0.24831776      -0.20667807      -0.12406795       0.06704442       0.02696479
H        0.83448726      -1.55722725       0.08994126       0.19558540      -0.30427199      -0.59841680       0.20401264      -0.16452665       0.13633672
H       -0.86766514       0.96498316       0.99922004       0.07209681       0.25937405      -0.21947748      -0.05544691       0.06237587       0.01283201
H       -0.45087094       1.28575977      -0.81494074      -0.51874471       0.00229565      -0.07323293      -0.09186078       0.05544237       0.05178502
H        1.79048926      -0.46138983      -0.23119658      -0.52393567      -0.37088287      -0.77977598       0.14052172      -0.15002069       0.27382097
7
Lattice="13.0 0.0 0.0 0.0 9.0 0.0 0.0 0.0 9.0" Properties=species:S:1:pos:R:3:momenta:R:3:forces:R:3 EPS_SCF=1e-06 energy=-671.5336867067713 units=gap_units Integrated_spin_density=1.924e-05 opt_dir=/home/tks32/dft_pbe/apr_8_opt_fragments_subset/singlepoint_5_CH3OH time=105.0 free_energy=-671.5336867067713 cutoff=8.0 nneightol=1.2 pbc="T T T"
C       -0.81867099       0.60483894      -0.03239835      -0.59160075       1.73071550       0.21142542       0.13533560      -0.07110499       0.01288476
O        0.99618588      -0.62483903       0.31009134       1.35682353      -1.56554810       1.66615584      -0.11569798       0.15145565      -0.54181933
H       -1.49572826      -0.20767618      -0.33254200       0.00977539       0.24831776      -0.20667807      -0.12414414       0.07523911       0.03851237
H        0.84049305      -1.56250184       0.09465643       0.19558540      -0.30427199      -0.59841680       0.19288421      -0.10845711       0.13590456
H       -0.86830953       0.96687866       1.00038052       0.07209681       0.25937405      -0.21947748      -0.06716917       0.05719120      -0.00325265