7
Lattice="13.0 0.0 0.0 0.0 9.0 0.0 0.0 0.0 9.0" Properties=species:S:1:pos:R:3:momenta:R:3:forces:R:3 EPS_SCF=1e-06 energy=-671.0798146472919 units=gap_units Integrated_spin_density=1.924e-05 opt_dir=/home/tks32/dft_pbe/apr_8_opt_fragments_subset/singlepoint_5_CH3OH time=90.0 free_energy=-671.0798146472919 cutoff=8.0 nneightol=1.2 pbc="T T T"
C       -0.69378861       0.46786140      -0.04217576      -0.82734731       1.85880104      -0.35784557      -1.17383797      -0.61879438       0.03296830
O        0.89656640      -0.33458778       0.18905296       1.59044282      -1.16691136      -0.89610095       2.39641875      -0.18860904      -1.33019940
H       -1.38559324      -0.33340631      -0.40997325      -0.06307400       0.02820179       0.60904178       0.28618217       0.58232012       0.17935332
H        0.80077971      -1.26086249       0.51074827      -0.46191184      -0.49587401       0.40181764       0.09865454      -0.47868516       0.20120327
H       -0.94570574       0.81811191       0.97445047       0.15418972       0.06118309      -0.29300755      -0.06106467       0.07973096      -0.13907466
H       -0.53443222       1.25580888      -0.79004780      -0.08335044      -0.01230101       0.24570463      -0.02815720       0.36828919      -0.10834799
H        1.86217372      -0.61292561      -0.43205489      -0.30894896      -0.27309953       0.29039001      -1.51819562       0.25574832       1.16409716
7
Lattice="13.0 0.0 0.0 0.0 9.0 0.0 0.0 0.0 9.0" Properties=species:S:1:pos:R:3:momenta:R:3:forces:R:3 EPS_SCF=1e-06 energy=-671.2077416883094 units=gap_units Integrated_spin_density=1.924e-05 opt_dir=/home/tks32/dft_pbe/apr_8_opt_fragments_subset/singlepoint_5_CH3OH time=90.0 free_energy=-671.2077416883094 cutoff=8.0 nneightol=1.2 pbc="T T T"
C       -0.70552699       0.46167346      -0.04184608      -0.82734731       1.85880104      -0.35784557      -0.82560496       0.32893623      -0.14385733
O        0.92053059      -0.33647387       0.17575097       1.59044282      -1.16691136      -0.89610095       2.27557810      -0.78281662      -1.03671349
H       -1.38273142      -0.32758311      -0.40817972      -0.06307400       0.02820179       0.60904178      -0.11360719       0.14154237       0.00651579
H        0.80176626      -1.26564934       0.51276030      -0.46191184      -0.49587401       0.40181764       0.25768920      -0.07278917       0.06195528
H       -0.94631639       0.81890922       0.97305972       0.15418972       0.06118309      -0.29300755      -0.08296135       0.03375932      -0.07687613
H       -0.53471379       1.25949177      -0.79113128      -0.08335044      -0.01230101       0.24570463      -0.11770017       0.08905138       0.10304813
H        1.84699176      -0.61036813      -0.42041392      -0.30894896      -0.27309953       0.29039001      -1.39339362       0.26231649       1.08592775
7
Lattice="13.0 0.0 0.0 0.0 9.0 0.0 0.0 0.0 9.0" Properties=species:S:1:pos:R:3:momenta:R:3:forces:R:3 EPS_SCF=1e-06 energy=-671.3790340370983 units=gap_units Integrated_spin_density=1.924e-05 opt_dir=/home/tks32/dft_pbe/apr_8_opt_fragments_subset/singlepoint_5_CH3OH time=90.0 free_energy=-671.3790340370983 cutoff=8.0 nneightol=1.2 pbc="T T T"
C       -0.72527629       0.45976368      -0.04314976      -0.82734731       1.85880104      -0.35784557      -0.48573176       1.34488082      -0.24200902
O        0.96741389      -0.34688009       0.15224586       1.59044282      -1.16691136      -0.89610095       1.16478387      -1.21251368      -0.06303552
H       -1.38141965      -0.32076759      -0.40649305      -0.06307400       0.02820179       0.60904178      -0.61259762      -0.38117774      -0.21712308
H        0.80552091      -1.27076728       0.51526038      -0.46191184      -0.49587401       0.40181764       0.53096872       0.37544616      -0.12301719
H       -0.94778890       0.82000237       0.97095281       0.15418972       0.06118309      -0.29300755      -0.13701617       0.01654534       0.03507856
H       -0.53627661       1.26379706      -0.79096001      -0.08335044      -0.01230101       0.24570463      -0.19478844      -0.12387458       0.23091570
H        1.81782666      -0.60514815      -0.39785623      -0.30894896      -0.27309953       0.29039001      -0.26561860      -0.01930633       0.37919055
7
Lattice="13.0 0.0 0.0 0.0 9.0 0.0 0.0 0.0 9.0" Properties=species:S:1:pos:R:3:momenta:R:3:forces:R:3 EPS_SCF=1e-06 energy=-671.3667307268879 units=gap_units Integrated_spin_density=1.924e-05 opt_dir=/home/tks32/dft_pbe/apr_8_opt_fragments_subset/singlepoint_5_CH3OH time=90.0 free_energy=-671.3667307268879 cutoff=8.0 nneightol=1.2 pbc="T T T"
C       -0.74924612       0.47519871      -0.04740987      -0.82734731       1.85880104      -0.35784557      -0.60703773       1.15435853      -0.17576260
O        1.02446557      -0.37171119       0.13028725       1.59044282      -1.16691136      -0.89610095      -1.92391572      -0.46576077       1.94952750
H       -1.38805267      -0.31949550      -0.40774443      -0.06307400       0.02820179       0.60904178      -0.65133370      -0.35601609      -0.22803549
H        0.81567255      -1.27058464       0.51594137      -0.46191184      -0.49587401       0.40181764       0.74037716       0.39502527      -0.17912035
H       -0.95086180       0.82119723       0.96950402       0.15418972       0.06118309      -0.29300755      -0.21339393       0.10825958       0.20260309
H       -0.54016765       1.26609181      -0.78786057      -0.08335044      -0.01230101       0.24570463      -0.14183209       0.09365918       0.00542684
H        1.78819013      -0.60069642      -0.37271776      -0.30894896      -0.27309953       0.29039001       2.79713602      -0.92952571      -1.57463900
7
Lattice="13.0 0.0 0.0 0.0 9.0 0.0 0.0 0.0 9.0" Properties=species:S:1:pos:R:3:momenta:R:3:forces:R:3 EPS_SCF=1e-06 energy=-671.4153566072316 units=gap_units Integrated_spin_density=1.924e-05 opt_dir=/home/tks32/dft_pbe/apr_8_opt_fragments_subset/singlepoint_5_CH3OH time=90.0 free_energy=-671.4153566072316 cutoff=8.0 nneightol=1.2 pbc="T T T"
C       -0.75076371       0.47808461      -0.04784928      -0.82734731       1.85880104      -0.35784557      -0.61628913       0.95339558      -0.15214720
O        1.01965578      -0.37287559       0.13516106       1.59044282      -1.16691136      -0.89610095      -1.30531266      -0.40117748       1.43779070
H       -1.38968101      -0.32038554      -0.40831452      -0.06307400       0.02820179       0.60904178      -0.58770186      -0.27014092      -0.19387835
H        0.81752349      -1.26959708       0.51549357      -0.46191184      -0.49587401       0.40181764       0.65842712       0.18758735      -0.08042637
H       -0.95139528       0.82146788       0.97001053       0.15418972       0.06118309      -0.29300755      -0.21887682       0.12162855       0.20564599
H       -0.54052223       1.26632596      -0.78784700      -0.08335044      -0.01230101       0.24570463      -0.13709090       0.15707034      -0.03995545
H        1.79518297      -0.60302024      -0.37665436      -0.30894896      -0.27309953       0.29039001       2.20684425      -0.74836342      -1.17702932
7
Lattice="13.0 0.0 0.0 0.0 9.0 0.0 0.0 0.0 9.0" Properties=species:S:1:pos:R:3:momenta:R:3:forces:R:3 EPS_SCF=1e-06 energy=-671.4724144107319 units=gap_units Integrated_spin_density=1.924e-05 opt_dir=/home/tks32/dft_pbe/apr_8_opt_fragments_subset/singlepoint_5_CH3OH time=90.0 free_energy=-671.4724144107319 cutoff=8.0 nneightol=1.2 pbc="T T T"
C       -0.75387001       0.48337440      -0.04867442      -0.82734731       1.85880104      -0.35784557      -0.62092670       0.59898581      -0.10722419
O        1.01164064      -0.37505652       0.14360796       1.59044282      -1.16691136      -0.89610095      -0.33102403      -0.25137675       0.60581704
H       -1.39280623      -0.32194948      -0.40937513      -0.06307400       0.02820179       0.60904178      -0.47505546      -0.11945672      -0.13430855
H        0.82104880      -1.26817851       0.51486342      -0.46191184      -0.49587401       0.40181764       0.52170341      -0.17012977       0.08482758
H       -0.95249355       0.82205496       0.97104715       0.15418972       0.06118309      -0.29300755      -0.22781215       0.14353279       0.20692380
H       -0.54122851       1.26698028      -0.78794763      -0.08335044      -0.01230101       0.24570463      -0.12828074       0.26419514      -0.11684306
H        1.80770888      -0.60722512      -0.38352135      -0.30894896      -0.27309953       0.29039001       1.26139567      -0.46575050      -0.53919263
7
Lattice="13.0 0.0 0.0 0.0 9.0 0.0 0.0 0.0 9.0" Properties=species:S:1:pos:R:3:momenta:R:3:forces:R:3 EPS_SCF=1e-06 energy=-671.4987020837083 units=gap_units Integrated_spin_density=1.924e-05 opt_dir=/home/tks32/dft_pbe/apr_8_opt_fragments_subset/singlepoint_5_CH3OH time=90.0 free_energy=-671.4987020837083 cutoff=8.0 nneightol=1.2 pbc="T T T"
C       -0.75884964       0.49024200      -0.04979419      -0.82734731       1.85880104      -0.35784557      -0.60096697       0.18357503      -0.04985538
O        1.00326271      -0.37790351       0.15334099       1.59044282      -1.16691136      -0.89610095       0.69904405      -0.06185876      -0.30527964
H       -1.39728984      -0.32377719      -0.41080208      -0.06307400       0.02820179       0.60904178      -0.33943892       0.05874474      -0.06389355
H        0.82605655      -1.26750019       0.51459464      -0.46191184      -0.49587401       0.40181764       0.37592806      -0.55668915       0.25692342
H       -0.95428326       0.82308817       0.97270791       0.15418972       0.06118309      -0.29300755      -0.23722116       0.16524992       0.19738989
H       -0.54231536       1.26849840      -0.78844916      -0.08335044      -0.01230101       0.24570463      -0.11813073       0.37613908      -0.19680158
H        1.82341885      -0.61264769      -0.39159812      -0.30894896      -0.27309953       0.29039001       0.22078567      -0.16516085       0.16151684
7
Lattice="13.0 0.0 0.0 0.0 9.0 0.0 0.0 0.0 9.0" Properties=species:S:1:pos:R:3:momenta:R:3:forces:R:3 EPS_SCF=1e-06 energy=-671.4962701734582 units=gap_units Integrated_spin_density=1.924e-05 opt_dir=/home/tks32/dft_pbe/apr_8_opt_fragments_subset/singlepoint_5_CH3OH time=90.0 free_energy=-671.4962701734582 cutoff=8.0 nneightol=1.2 pbc="T T T"
C       -0.76590559       0.49720920      -0.05101554      -0.82734731       1.85880104      -0.35784557      -0.54090123      -0.13758368      -0.00423299
O        0.99871699      -0.38073078       0.16079303       1.59044282      -1.16691136      -0.89610095       1.38380477       0.04142206      -0.94594276
H       -1.40277909      -0.32517049      -0.41236003      -0.06307400       0.02820179       0.60904178      -0.22215830       0.20679406      -0.00342255
H        0.83217384      -1.26927431       0.51545329      -0.46191184      -0.49587401       0.40181764       0.27787015      -0.76840652       0.35095890
H       -0.95691016       0.82472592       0.97504814       0.15418972       0.06118309      -0.29300755      -0.24308623       0.17413226       0.16604245
H       -0.54379955       1.27147594      -0.78974355      -0.08335044      -0.01230101       0.24570463      -0.11463019       0.43161765      -0.23282059
H        1.83850358      -0.61823548      -0.39817534      -0.30894896      -0.27309953       0.29039001      -0.54089897       0.05202417       0.66941754
7
Lattice="13.0 0.0 0.0 0.0 9.0 0.0 0.0 0.0 9.0" Properties=species:S:1:pos:R:3:momenta:R:3:forces:R:3 EPS_SCF=1e-06 energy=-671.4994112416938 units=gap_units Integrated_spin_density=1.924e-05 opt_dir=/home/tks32/dft_pbe/apr_8_opt_fragments_subset/singlepoint_5_CH3OH time=90.0 free_energy=-671.4994112416938 cutoff=8.0 nneightol=1.2 pbc="T T T"
C       -0.76624366       0.49712321      -0.05101818      -0.82734731       1.85880104      -0.35784557      -0.53485978      -0.11250935      -0.00827791
O        0.99958186      -0.38070489       0.16020182       1.59044282      -1.16691136      -0.89610095       1.33977269       0.00901886      -0.90410261
H       -1.40291794      -0.32504124      -0.41236217      -0.06307400       0.02820179       0.60904178      -0.22784874       0.19850834      -0.00604846
H        0.83234751      -1.26975457       0.51567264      -0.46191184      -0.49587401       0.40181764       0.28623520      -0.72878193       0.33519748
H       -0.95706209       0.82483475       0.97515191       0.15418972       0.06118309      -0.29300755      -0.24244892       0.17141345       0.16223919
H       -0.54387119       1.27174570      -0.78988907      -0.08335044      -0.01230101       0.24570463      -0.11707748       0.41944823      -0.22301483
H        1.83816552      -0.61820296      -0.39775695      -0.30894896      -0.27309953       0.29039001      -0.50377297       0.04290240       0.64400713
7
Lattice="13.0 0.0 0.0 0.0 9.0 0.0 0.0 0.0 9.0" Properties=species:S:1:pos:R:3:momenta:R:3:forces:R:3 EPS_SCF=1e-06 energy=-671.5052378734529 units=gap_units Integrated_spin_density=1.924e-05 opt_dir=/home/tks32/dft_pbe/apr_8_opt_fragments_subset/singlepoint_5_CH3OH time=90.0 free_energy=-671.5052378734529 cutoff=8.0 nneightol=1.2 pbc="T T T"
C       -0.76691690       0.49696820      -0.05102628      -0.82734731       1.85880104      -0.35784557      -0.52312012      -0.06407165      -0.01592499
O        1.00128453      -0.38067537       0.15904601       1.59044282      -1.16691136      -0.89610095       1.25217590      -0.05262560      -0.82173628
H       -1.40320009      -0.32478797      -0.41236827      -0.06307400       0.02820179       0.60904178      -0.23880028       0.18251180      -0.01111609
H        0.83270128      -1.27068956       0.51610130      -0.46191184      -0.49587401       0.40181764       0.30242968      -0.65234318       0.30465768
H       -0.95736609       0.82505095       0.97535724       0.15418972       0.06118309      -0.29300755      -0.24120153       0.16611972       0.15474719
H       -0.54401644       1.27227785      -0.79017388      -0.08335044      -0.01230101       0.24570463      -0.12178266       0.39584775      -0.20403043
H        1.83751372      -0.61814410      -0.39693612      -0.30894896      -0.27309953       0.29039001      -0.42970100       0.02456115       0.59340291
7
Lattice="13.0 0.0 0.0 0.0 9.0 0.0 0.0 0.0 9.0" Properties=species:S:1:pos:R:3:momenta:R:3:forces:R:3 EPS_SCF=1e-06 energy=-671.5129206884454 units=gap_units Integrated_spin_density=1.924e-05 opt_dir=/home/tks32/dft_pbe/apr_8_opt_fragments_subset/singlepoint_5_CH3OH time=90.0 free_energy=-671.5129206884454 cutoff=8.0 nneightol=1.2 pbc="T T T"
C       -0.76792163       0.49677985      -0.05104570      -0.82734731       1.85880104      -0.35784557      -0.50637994       0.00427979      -0.02631232
O        1.00377156      -0.38068892       0.15737930       1.59044282      -1.16691136      -0.89610095       1.12235672      -0.13731623      -0.70177017
H       -1.40363608      -0.32442089      -0.41238223      -0.06307400       0.02820179       0.60904178      -0.25412757       0.15998433      -0.01824067
H        0.83325024      -1.27202839       0.51671936      -0.46191184      -0.49587401       0.40181764       0.32534232      -0.54470592       0.26134675
H       -0.95782357       0.82537218       0.97566000       0.15418972       0.06118309      -0.29300755      -0.23939277       0.15853733       0.14379117
H       -0.54424000       1.27305857      -0.79058576      -0.08335044      -0.01230101       0.24570463      -0.12837007       0.36229019      -0.17711121
H        1.83659951      -0.61807240      -0.39574498      -0.30894896      -0.27309953       0.29039001      -0.31942868      -0.00306949       0.51829646
7
Lattice="13.0 0.0 0.0 0.0 9.0 0.0 0.0 0.0 9.0" Properties=species:S:1:pos:R:3:momenta:R:3:forces:R:3 EPS_SCF=1e-06 energy=-671.521414359047 units=gap_units Integrated_spin_density=1.924e-05 opt_dir=/home/tks32/dft_pbe/apr_8_opt_fragments_subset/singlepoint_5_CH3OH time=90.0 free_energy=-671.521414359047 cutoff=8.0 nneightol=1.2 pbc="T T T"
C       -0.76925593       0.49661396      -0.05108552      -0.82734731       1.85880104      -0.35784557      -0.48567425       0.08738750      -0.03822608
O        1.00696303      -0.38081773       0.15528331       1.59044282      -1.16691136      -0.89610095       0.95330930      -0.23623503      -0.54925209
H       -1.40424429      -0.32395465      -0.41241029      -0.06307400       0.02820179       0.60904178      -0.27247414       0.13272490      -0.02682250
H        0.83402059      -1.27369592       0.51749755      -0.46191184      -0.49587401       0.40181764       0.35324213      -0.41414029       0.20831424
H       -0.95843860       0.82579592       0.97605460       0.15418972       0.06118309      -0.29300755      -0.23708509       0.14908944       0.12970564
H       -0.54455023       1.27406889      -0.79110686      -0.08335044      -0.01230101       0.24570463      -0.13629377       0.32094949      -0.14407216
H        1.83550545      -0.61801048      -0.39423279      -0.30894896      -0.27309953       0.29039001      -0.17502418      -0.03977600       0.42035295
7
Lattice="13.0 0.0 0.0 0.0 9.0 0.0 0.0 0.0 9.0" Properties=species:S:1:pos:R:3:momenta:R:3:forces:R:3 EPS_SCF=1e-06 energy=-671.5296792098791 units=gap_units Integrated_spin_density=1.924e-05 opt_dir=/home/tks32/dft_pbe/apr_8_opt_fragments_subset/singlepoint_5_CH3OH time=90.0 free_energy=-671.5296792098791 cutoff=8.0 nneightol=1.2 pbc="T T T"
C       -0.77092225       0.49654842      -0.05115800      -0.82734731       1.85880104      -0.35784557      -0.46236637       0.17835408      -0.05020216
O        1.01074897      -0.38116006       0.15287052       1.59044282      -1.16691136      -0.89610095       0.75096038      -0.33848570      -0.37220981
H       -1.40505280      -0.32340784      -0.41246124      -0.06307400       0.02820179       0.60904178      -0.29196303       0.10320527      -0.03601160
H        0.83505244      -1.27559360       0.51839757      -0.46191184      -0.49587401       0.40181764       0.38369803      -0.27144347       0.14970466
H       -0.95921935       0.82632017       0.97653405       0.15418972       0.06118309      -0.29300755      -0.23434871       0.13833649       0.11294970
H       -0.54496006       1.27528577      -0.79171393      -0.08335044      -0.01230101       0.24570463      -0.14485591       0.27467304      -0.10725556
H        1.83435306      -0.61799287      -0.39246897      -0.30894896      -0.27309953       0.29039001      -0.00112439      -0.08463972       0.30302477
7
Lattice="13.0 0.0 0.0 0.0 9.0 0.0 0.0 0.0 9.0" Properties=species:S:1:pos:R:3:momenta:R:3:forces:R:3 EPS_SCF=1e-06 energy=-671.5369471306125 units=gap_units Integrated_spin_density=1.924e-05 opt_dir=/home/tks32/dft_pbe/apr_8_opt_fragments_subset/singlepoint_5_CH3OH time=90.0 free_energy=-671.5369471306125 cutoff=8.0 nneightol=1.2 pbc="T T T"
C       -0.77292684       0.49668418      -0.05127805      -0.82734731       1.85880104      -0.35784557      -0.43811716       0.26842063      -0.06063132
O        1.01497636      -0.38183778       0.15029257       1.59044282      -1.16691136      -0.89610095       0.52622153      -0.43169098      -0.18306036
H       -1.40609929      -0.32280300      -0.41254643      -0.06307400       0.02820179       0.60904178      -0.31015198       0.07462870      -0.04467397
H        0.83640011      -1.27759792       0.51937106      -0.46191184      -0.49587401       0.40181764       0.41345032      -0.12998739       0.09089684
H       -0.96017793       0.82694306       0.97708890       0.15418972       0.06118309      -0.29300755      -0.23126566       0.12699720       0.09416644
H       -0.54548708       1.27668089      -0.79237741      -0.08335044      -0.01230101       0.24570463      -0.15321931       0.22701249      -0.06953021
H        1.83331468      -0.61806944      -0.39055063      -0.30894896      -0.27309953       0.29039001       0.19308224      -0.13538064       0.17283258
7
Lattice="13.0 0.0 0.0 0.0 9.0 0.0 0.0 0.0 9.0" Properties=species:S:1:pos:R:3:momenta:R:3:forces:R:3 EPS_SCF=1e-06 energy=-671.5429847913307 units=gap_units Integrated_spin_density=1.924e-05 opt_dir=/home/tks32/dft_pbe/apr_8_opt_fragments_subset/singlepoint_5_CH3OH time=90.0 free_energy=-671.5429847913307 cutoff=8.0 nneightol=1.2 pbc="T T T"
C       -0.77526549       0.49713387      -0.05146007      -0.82734731       1.85880104      -0.35784557      -0.41471425       0.34723388      -0.06797039
O        1.01942303      -0.38297441       0.14774906       1.59044282      -1.16691136      -0.89610095       0.29729233      -0.50328941       0.00009233
H       -1.40741953      -0.32216760      -0.41267760      -0.06307400       0.02820179       0.60904178      -0.32416841       0.05078056      -0.05144414
H        0.83811744      -1.27956040       0.52035811      -0.46191184      -0.49587401       0.40181764       0.43844805      -0.00524258       0.03842434
H       -0.96132280       0.82765860       0.97770314       0.15418972       0.06118309      -0.29300755      -0.22794753       0.11596266       0.07430613
H       -0.54614834       1.27821348      -0.79305937      -0.08335044      -0.01230101       0.24570463      -0.16045937       0.18215402      -0.03420942
H        1.83261571      -0.61830353      -0.38861326      -0.30894896      -0.27309953       0.29039001       0.39154918      -0.18759913       0.04080116
7
Lattice="13.0 0.0 0.0 0.0 9.0 0.0 0.0 0.0 9.0" Properties=species:S:1:pos:R:3:momenta:R:3:forces:R:3 EPS_SCF=1e-06 energy=-671.548723455746 units=gap_units Integrated_spin_density=1.924e-05 opt_dir=/home/tks32/dft_pbe/apr_8_opt_fragments_subset/singlepoint_5_CH3OH time=90.0 free_energy=-671.548723455746 cutoff=8.0 nneightol=1.2 pbc="T T T"
C       -0.77818957       0.49808879      -0.05174005      -0.82734731       1.85880104      -0.35784557      -0.39157143       0.41031249      -0.07135977
O        1.02426167      -0.38483851       0.14523113       1.59044282      -1.16691136      -0.89610095       0.06803022      -0.54725004       0.17051820
H       -1.40920245      -0.32146401      -0.41288298      -0.06307400       0.02820179       0.60904178      -0.33192535       0.03379483      -0.05532358
H        0.84046124      -1.28151095       0.52139169      -0.46191184      -0.49587401       0.40181764       0.45605637       0.09707696      -0.00501699
H       -0.96279086       0.82853722       0.97842033       0.15418972       0.06118309      -0.29300755      -0.22417798       0.10517749       0.05254868
H       -0.54703854       1.27999814      -0.79378474      -0.08335044      -0.01230101       0.24570463      -0.16624399       0.14042813      -0.00152663
H        1.83249853      -0.61881068      -0.38663537      -0.30894896      -0.27309953       0.29039001       0.58983217      -0.23953986      -0.08983991
7
Lattice="13.0 0.0 0.0 0.0 9.0 0.0 0.0 0.0 9.0" Properties=species:S:1:pos:R:3:momenta:R:3:forces:R:3 EPS_SCF=1e-06 energy=-671.5551477645486 units=gap_units Integrated_spin_density=1.924e-05 opt_dir=/home/tks32/dft_pbe/apr_8_opt_fragments_subset/singlepoint_5_CH3OH time=90.0 free_energy=-671.5551477645486 cutoff=8.0 nneightol=1.2 pbc="T T T"
C       -0.78173352       0.49971203      -0.05213525      -0.82734731       1.85880104      -0.35784557      -0.36995070       0.44442692      -0.06939357
O        1.02916945      -0.38758871       0.14301687       1.59044282      -1.16691136      -0.89610095      -0.12568686      -0.55178874       0.29657471
H       -1.41151701      -0.32071093      -0.41317779      -0.06307400       0.02820179       0.60904178      -0.32975952       0.02835462      -0.05453904
H        0.84353645      -1.28328401       0.52240779      -0.46191184      -0.49587401       0.40181764       0.46044505       0.15775889      -0.03072134
H       -0.96461564       0.82958151       0.97921781       0.15418972       0.06118309      -0.29300755      -0.22006647       0.09576740       0.03030605
H       -0.54819503       1.28199855      -0.79450616      -0.08335044      -0.01230101       0.24570463      -0.16946808       0.10686063       0.02462516
H        1.83335532      -0.61970843      -0.38482327      -0.30894896      -0.27309953       0.29039001       0.75448657      -0.28137972      -0.19685197
7
Lattice="13.0 0.0 0.0 0.0 9.0 0.0 0.0 0.0 9.0" Properties=species:S:1:pos:R:3:momenta:R:3:forces:R:3 EPS_SCF=1e-06 energy=-671.5637699129069 units=gap_units Integrated_spin_density=1.924e-05 opt_dir=/home/tks32/dft_pbe/apr_8_opt_fragments_subset/singlepoint_5_CH3OH time=90.0 free_energy=-671.5637699129069 cutoff=8.0 nneightol=1.2 pbc="T T T"
C       -0.78593087       0.50214079      -0.05265512      -0.82734731       1.85880104      -0.35784557      -0.35011573       0.43846797      -0.06135218
O        1.03380751      -0.39133328       0.14136591       1.59044282      -1.16691136      -0.89610095      -0.24798388      -0.50828923       0.34790242
H       -1.41442059      -0.31991154      -0.41357070      -0.06307400       0.02820179       0.60904178      -0.31485020       0.03807794      -0.04770676
H        0.84743532      -1.28475279       0.52335940      -0.46191184      -0.49587401       0.40181764       0.44624595       0.16045229      -0.03078020
H       -0.96683130       0.83079396       0.98006486       0.15418972       0.06118309      -0.29300755      -0.21569639       0.08873546       0.00917803
H       -0.54965449       1.28418007      -0.79517662      -0.08335044      -0.01230101       0.24570463      -0.16917816       0.08563863       0.04102330
H        1.83559444      -0.62111720      -0.38338774      -0.30894896      -0.27309953       0.29039001       0.85157843      -0.30308307      -0.25826460
7
Lattice="13.0 0.0 0.0 0.0 9.0 0.0 0.0 0.0 9.0" Properties=species:S:1:pos:R:3:momenta:R:3:forces:R:3 EPS_SCF=1e-06 energy=-671.5757481975336 units=gap_units Integrated_spin_density=1.924e-05 opt_dir=/home/tks32/dft_pbe/apr_8_opt_fragments_subset/singlepoint_5_CH3OH time=90.0 free_energy=-671.5757481975336 cutoff=8.0 nneightol=1.2 pbc="T T T"
C       -0.79084556       0.50548694      -0.05330213      -0.82734731       1.85880104      -0.35784557      -0.33071104       0.38485516      -0.04719781
O        1.03788625      -0.39613508       0.14046695       1.59044282      -1.16691136      -0.89610095      -0.26591525      -0.41255065       0.29786089
H       -1.41797511      -0.31903644      -0.41406257      -0.06307400       0.02820179       0.60904178      -0.28542471       0.06480317      -0.03404455
H        0.85225826      -1.28586998       0.52423905      -0.46191184      -0.49587401       0.40181764       0.40931158       0.09395430       0.00074954
H       -0.96949139       0.83218721       0.98092575       0.15418972       0.06118309      -0.29300755      -0.21106761       0.08479739      -0.00921507
H       -0.55146440       1.28652928      -0.79575520      -0.08335044      -0.01230101       0.24570463      -0.16458453       0.07943192       0.04556482
H        1.83963198      -0.62316192      -0.38251186      -0.30894896      -0.27309953       0.29039001       0.84839156      -0.29529130      -0.25371782
7
Lattice="13.0 0.0 0.0 0.0 9.0 0.0 0.0 0.0 9.0" Properties=species:S:1:pos:R:3:momenta:R:3:forces:R:3 EPS_SCF=1e-06 energy=-671.5907074894883 units=gap_units Integrated_spin_density=1.924e-05 opt_dir=/home/tks32/dft_pbe/apr_8_opt_fragments_subset/singlepoint_5_CH3OH time=90.0 free_energy=-671.5907074894883 cutoff=8.0 nneightol=1.2 pbc="T T T"
C       -0.79659213       0.50981462      -0.05406818      -0.82734731       1.85880104      -0.35784557      -0.30791224       0.28238367      -0.02784013
O        1.04125058      -0.40198216       0.14034742       1.59044282      -1.16691136      -0.89610095      -0.15861605      -0.26853679       0.13185880
H       -1.42225150      -0.31799783      -0.41464015      -0.06307400       0.02820179       0.60904178      -0.24169848       0.10722400      -0.01388904
H        0.85811794      -1.28673660       0.52511567      -0.46191184      -0.49587401       0.40181764       0.34845628      -0.04166924       0.06491797
H       -0.97268511       0.83379301       0.98175781       0.15418972       0.06118309      -0.29300755      -0.20610957       0.08418887      -0.02332197
H       -0.55369191       1.28907167      -0.79621205      -0.08335044      -0.01230101       0.24570463      -0.15520863       0.08826633       0.03806272
H        1.84585216      -0.62596271      -0.38230052      -0.30894896      -0.27309953       0.29039001       0.72108870      -0.25185685      -0.16978836
7
Lattice="13.0 0.0 0.0 0.0 9.0 0.0 0.0 0.0 9.0" Properties=species:S:1:pos:R:3:momenta:R:3:forces:R:3 EPS_SCF=1e-06 energy=-671.6061811285149 units=gap_units Integrated_spin_density=1.924e-05 opt_dir=/home/tks32/dft_pbe/apr_8_opt_fragments_subset/singlepoint_5_CH3OH time=90.0 free_energy=-671.6061811285149 cutoff=8.0 nneightol=1.2 pbc="T T T"
C       -0.80336049       0.51508372      -0.05492548      -0.82734731       1.85880104      -0.35784557      -0.27436593       0.14238947      -0.00589039
O        1.04405942      -0.40871651       0.14067734       1.59044282      -1.16691136      -0.89610095       0.06391760      -0.09994290      -0.13452493
H       -1.42733103      -0.31659897      -0.41526235      -0.06307400       0.02820179       0.60904178      -0.18766912       0.15821583       0.01034505
H        0.86513690      -1.28774108       0.52620926      -0.46191184      -0.49587401       0.40181764       0.26893365      -0.21979401       0.15090165
H       -0.97656580       0.83567802       0.98250663       0.15418972       0.06118309      -0.29300755      -0.20050099       0.08615415      -0.03196667