7
Lattice="13.0 0.0 0.0 0.0 9.0 0.0 0.0 0.0 9.0" Properties=species:S:1:pos:R:3:momenta:R:3:forces:R:3 EPS_SCF=1e-06 energy=-672.0039390633084 units=gap_units Integrated_spin_density=1.92365e-05 opt_dir=/home/tks32/dft_pbe/apr_8_opt_fragments_subset/singlepoint_5_CH3OH time=80.0 free_energy=-672.0039390633084 pbc="T T T"
C       -0.34394797       0.74959229      -0.02649011      -0.31755189       0.20554123      -0.72739919       0.00592222       0.13056324       0.08408095
O        0.48065135      -0.47105174      -0.02330496       0.81008310      -0.91349911      -1.00947518      -0.16541830       0.02295060      -0.05342642
H       -0.95071240       0.84364055       0.90147070      -0.18886903       0.28104581       0.54177865      -0.00789613      -0.03927237      -0.09597521
H        1.31532604      -0.37308095       0.47646590       0.07114053      -0.47466848       0.82710319       0.10977591       0.00753091       0.04133656
H        0.27087275       1.65786181      -0.14220103       0.25883444       0.18186623      -0.11931727      -0.03270766       0.04481518       0.03006798
H       -1.02476799       0.66915363      -0.90256191      -0.44120399       0.03986781       0.11509125       0.04320567      -0.00527770       0.00679324
H        0.77972875      -2.15661844      -0.49466426      -0.19243317       0.67984652       0.37221854       0.04711829      -0.16130986      -0.01287711
7
Lattice="13.0 0.0 0.0 0.0 9.0 0.0 0.0 0.0 9.0" Properties=species:S:1:pos:R:3:momenta:R:3:forces:R:3:map_shift:I:3:n_neighb:I:1:force:R:3:local_energy:R:1:gap_var:R:1:gap_variance_gradient:R:3 EPS_SCF=1e-06 energy=-670.8861457844155 units=gap_units Integrated_spin_density=1.924e-05 opt_dir=/home/tks32/dft_pbe/apr_8_opt_fragments_subset/singlepoint_5_CH3OH time=80.0 free_energy=-670.37409561 cutoff=8.0 nneightol=1.2 pbc="T T T"
C       -0.68330204       0.35536426      -0.06575381      -0.31755189       0.20554123      -0.72739919      -0.37701151      -1.48201607       1.48739457        0        0        0       14       0.38672020      -0.79668979       1.02130473    -154.85775678       0.00448875      -0.00544893       0.00086698       0.00233657
O        0.69993763      -0.42404516       0.03926088       0.81008310      -0.91349911      -1.00947518       2.66601628       3.35327239       1.34106738        0        0        0       12      -1.55133336       1.36140503      -1.12138439    -436.49689155       0.00909530       0.01672761       0.00191792      -0.01300883
H       -1.44480857      -0.31570513      -0.52236328      -0.18886903       0.28104581       0.54177865       0.43192971       0.31270212      -1.29995863        0        0        0       11       0.13731432       0.17218991       0.20547067     -16.13131263       0.00408841      -0.00631119       0.00292362       0.00265222
H        0.81094700      -0.79433733       0.91024323       0.07114053      -0.47466848       0.82710319      -2.58442198      -2.02183246      -1.12731295        0        0        0       14       0.28594222      -0.58676237       0.77402327     -15.66993945       0.00522586       0.00400979       0.00048895      -0.00783020
H       -1.03128292       0.69541028       0.94128761       0.25883444       0.18186623      -0.11931727       0.83166955       0.97827468       0.37404479        0        0        0       15       0.13040586      -0.25533422      -0.52127414     -15.83183779       0.00443904       0.00343938      -0.00249757      -0.00363565
H       -0.51064710       1.23427576      -0.69250141      -0.44120399       0.03986781       0.11509125      -1.23448496      -0.25401126      -0.60014721        0        0        0       14       0.20652967       0.26096981      -0.45801438     -16.09757688       0.00432027      -0.00798827       0.00220023       0.00206219
H        2.15915599      -0.75096269      -0.61017323      -0.19243317       0.67984652       0.37221854       0.26630290      -0.88638941      -0.17508795        0        0        0       12       0.40442109      -0.15577837       0.09987423     -15.80083070       0.01448637      -0.00442839      -0.00590012       0.01742371
7
Lattice="13.0 0.0 0.0 0.0 9.0 0.0 0.0 0.0 9.0" Properties=species:S:1:pos:R:3:momenta:R:3:forces:R:3:map_shift:I:3:n_neighb:I:1:force:R:3:local_energy:R:1:gap_var:R:1:gap_variance_gradient:R:3 EPS_SCF=1e-06 energy=-670.8641446314028 units=gap_units Integrated_spin_density=1.924e-05 opt_dir=/home/tks32/dft_pbe/apr_8_opt_fragments_subset/singlepoint_5_CH3OH time=81.0 free_energy=-670.30171853 cutoff=8.0 nneightol=1.2 pbc="T T T"
C       -0.67941845       0.36792745      -0.06416068      -0.43945737       0.18630460      -0.53649472      -0.63542649      -0.08945267       2.13910836        0        0        0       14       0.13230420      -0.91525707       0.98701575    -154.82114763       0.00452384      -0.00663089       0.00193077       0.00264678
O        0.72221057      -0.40650353       0.04304290       1.10466646      -0.64848910      -0.88682613       2.45306308       2.89069420       1.49839996        0        0        0       12      -1.41642705       1.35972911      -0.86471238    -436.45978838       0.00945464       0.00638342       0.00348727      -0.01072358
H       -1.43676252      -0.32081546      -0.51054488      -0.10523668       0.29105265       0.38075012       1.17631919       0.06715461      -2.32951701        0        0        0       11       0.21238549       0.27330731       0.20872791     -16.11284662       0.00409054      -0.00710697       0.00290584       0.00253175
H        0.80419677      -0.85742651       0.88332967      -0.17975312      -0.64192948       0.67437270      -2.53523256      -1.85973149      -1.37949508        0        0        0       14       0.23415987      -0.60431328       0.62643259     -15.69671545       0.00531534       0.00658356       0.00054116      -0.00844508
H       -1.01755591       0.70955358       0.94560631       0.30846632       0.21433307      -0.08599257       0.18688062       0.03949022       0.43396602        0        0        0       15       0.06325265      -0.17992220      -0.47462550     -15.86152665       0.00449515       0.00073786      -0.00128441      -0.00221153
H       -0.51338862       1.23805900      -0.70307350      -0.52825062       0.01832995       0.05937613      -0.95798882      -0.30193273      -0.30581376        0        0        0       14       0.21132650       0.30328096      -0.46994122     -16.10267186       0.00445203      -0.00806048       0.00245527       0.00187454
H        2.12071817      -0.73079452      -0.59419983      -0.16043498       0.58039831       0.39481446       0.31238499      -0.74622213      -0.05664849        0        0        0       12       0.56299835      -0.23682483      -0.01289715     -15.80944804       0.01420578       0.00809350      -0.01003591       0.01432710
7
Lattice="13.0 0.0 0.0 0.0 9.0 0.0 0.0 0.0 9.0" Properties=species:S:1:pos:R:3:momenta:R:3:forces:R:3:map_shift:I:3:n_neighb:I:1:force:R:3:local_energy:R:1:gap_var:R:1:gap_variance_gradient:R:3 EPS_SCF=1e-06 energy=-670.837115288832 units=gap_units Integrated_spin_density=1.924e-05 opt_dir=/home/tks32/dft_pbe/apr_8_opt_fragments_subset/singlepoint_5_CH3OH time=82.0 free_energy=-670.33041854 cutoff=8.0 nneightol=1.2 pbc="T T T"
C       -0.67648433       0.38055704      -0.06210295      -0.52472824       0.30753204      -0.30628097      -0.79347856       1.16223776       1.97336305        0        0        0       14      -0.11536348      -1.01638931       0.93484062    -154.78621798       0.00455432      -0.00674526       0.00274198       0.00256555
O        0.74385887      -0.39023019       0.05000051       1.26847463      -0.46446818      -0.68885560       1.90922984       1.84222990       1.24219266        0        0        0       13      -1.14881514       1.30032262      -0.69796349    -436.45620914       0.00957441      -0.00425700       0.00497410      -0.00757974
H       -1.42897010      -0.32531008      -0.49825001       0.03747502       0.31483130       0.11869270       1.43346295      -0.15106627      -2.70124592        0        0        0       11       0.29063485       0.36972962       0.20959457     -16.09151340       0.00409567      -0.00694699       0.00267774       0.00235928
H        0.79920599      -0.91821832       0.85145717      -0.39361507      -0.85290472       0.49629658      -2.04617148      -1.49386284      -1.34170579        0        0        0       14       0.16354125      -0.59330554       0.52576310     -15.72149025       0.00546449       0.00900779       0.00074190      -0.00913500
H       -1.00483555       0.72366880       0.94987637       0.28768801       0.19644401      -0.05066037      -0.47480420      -0.80823429       0.38603178        0        0        0       15       0.01318741      -0.11415737      -0.43078236     -15.89061469       0.00451767      -0.00132804      -0.00028368      -0.00098803
H       -0.51660772       1.24134395      -0.71413627      -0.58109257      -0.04041477       0.03903467      -0.36690334      -0.21129929       0.28398078        0        0        0       15       0.20341236       0.33843986      -0.45971082     -16.10748941       0.00459145      -0.00811720       0.00281682       0.00165659
H        2.08383284      -0.71181120      -0.57684481      -0.09420178       0.53898032       0.39177298       0.33866479      -0.34000496       0.15738342        0        0        0       12       0.59340274      -0.28463988      -0.08174163     -15.78358042       0.01343990       0.01838670      -0.01366885       0.01112136
7
Lattice="13.0 0.0 0.0 0.0 9.0 0.0 0.0 0.0 9.0" Properties=species:S:1:pos:R:3:momenta:R:3:forces:R:3:map_shift:I:3:n_neighb:I:1:force:R:3:local_energy:R:1:gap_var:R:1:gap_variance_gradient:R:3 EPS_SCF=1e-06 energy=-670.8119460359627 units=gap_units Integrated_spin_density=1.924e-05 opt_dir=/home/tks32/dft_pbe/apr_8_opt_fragments_subset/singlepoint_5_CH3OH time=83.0 free_energy=-670.45035893 cutoff=8.0 nneightol=1.2 pbc="T T T"
C       -0.67479512       0.39316997      -0.05966441      -0.54311101       0.50908883      -0.05588461      -1.01975530       2.10630147       1.44607378        0        0        0       14      -0.34452366      -1.09109650       0.86214699    -154.75208278       0.00458602      -0.00585249       0.00321184       0.00217326
O        0.76515999      -0.37571886       0.06003344       1.42816830      -0.41606403      -0.61207837       0.98752792       0.47135353       0.50181199        0        0        0       14      -0.73211945       1.19292250      -0.64690252    -436.47993460       0.00947722      -0.01358613       0.00608386      -0.00432726
H       -1.42155497      -0.32888929      -0.48563924       0.14294341       0.27707057      -0.15415666       1.38368349      -0.32981442      -2.58627126        0        0        0       11       0.35457677       0.45351139       0.20942644     -16.06795268       0.00410754      -0.00602763       0.00230677       0.00215408
H        0.79607407      -0.97599636       0.81510688      -0.54232151      -0.94835109       0.38912829      -1.04727118      -0.87699823      -0.81448158        0        0        0       15       0.07685576      -0.57567934       0.47795893     -15.74327076       0.00567357       0.01105588       0.00111397      -0.00964796
H       -0.99334733       0.73758345       0.95388511       0.17600293       0.11170834      -0.03221774      -0.96613903      -1.39333438       0.25604206        0        0        0       15      -0.01602336      -0.06400309      -0.38901915     -15.91834370       0.00451545      -0.00241546       0.00031285      -0.00017858
H       -0.52026129       1.24413215      -0.72535064      -0.59333054      -0.01403465       0.04691796       0.36297916      -0.04741164       0.86942646        0        0        0       15       0.18625969       0.36769575      -0.43255921     -16.11247280       0.00473034      -0.00814888       0.00325229       0.00142266
H        2.04872465      -0.69428107      -0.55837114      -0.06835159       0.48058202       0.41829113       0.29897494       0.06990366       0.32739855        0        0        0       12       0.47497423      -0.28335071      -0.08105147     -15.73788870       0.01237647       0.02497471      -0.01628158       0.00840380
7
Lattice="13.0 0.0 0.0 0.0 9.0 0.0 0.0 0.0 9.0" Properties=species:S:1:pos:R:3:momenta:R:3:forces:R:3:map_shift:I:3:n_neighb:I:1:force:R:3:local_energy:R:1:gap_var:R:1:gap_variance_gradient:R:3 EPS_SCF=1e-06 energy=-670.7983920613581 units=gap_units Integrated_spin_density=1.924e-05 opt_dir=/home/tks32/dft_pbe/apr_8_opt_fragments_subset/singlepoint_5_CH3OH time=84.0 free_energy=-670.57765906 cutoff=8.0 nneightol=1.2 pbc="T T T"
C       -0.67460432       0.40568304      -0.05695375      -0.78355857       0.76908658       0.09723315      -1.21976896       2.65880553       0.71817710        0        0        0       14      -0.54883112      -1.13066519       0.76750881    -154.71809257       0.00462228      -0.00424807       0.00334697       0.00161004
O        0.78637460      -0.36340333       0.07292761       1.44891704      -0.38789110      -0.71947494      -0.12446110      -0.85376789      -0.66816372        0        0        0       14      -0.13219171       1.03814126      -0.73505947    -436.52553143       0.00921179      -0.02070130       0.00667383      -0.00152049
H       -1.41466877      -0.33133621      -0.47289044       0.22983018       0.22029716      -0.37923713       1.08715273      -0.41725448      -2.01493152        0        0        0       11       0.40412548       0.51531253       0.20743927     -16.04351630       0.00413207      -0.00436293       0.00186058       0.00192914
H        0.79488122      -1.03008260       0.77492995      -0.54763577      -1.01771580       0.31563639       0.27347365      -0.16205273       0.25938768        0        0        0       15      -0.02180441      -0.57489834       0.48171373     -15.76147737       0.00592796       0.01253023       0.00160716      -0.00974649
H       -0.98325791       0.75114950       0.95745739       0.15144681      -0.02126355       0.02221263      -1.20053847      -1.64134532       0.10805204        0        0        0       15      -0.02630191      -0.02986341      -0.34499289     -15.94399301       0.00450244      -0.00259452       0.00050038       0.00019574
H       -0.52427898       1.24644751      -0.73638335      -0.50234125      -0.03091522       0.16180518       1.01788806       0.08951765       1.25719823        0        0        0       15       0.16312936       0.39446954      -0.39657810     -16.11799196       0.00486228      -0.00812675       0.00368077       0.00120148
H        2.01555416      -0.67845790      -0.53908742       0.00334157       0.46840194       0.50182473       0.16625410       0.32609724       0.34028018        0        0        0       12       0.16187430      -0.21249638       0.01996864     -15.68778942       0.01121698       0.02750334      -0.01766968       0.00633058
7
Lattice="13.0 0.0 0.0 0.0 9.0 0.0 0.0 0.0 9.0" Properties=species:S:1:pos:R:3:momenta:R:3:forces:R:3:map_shift:I:3:n_neighb:I:1:force:R:3:local_energy:R:1:gap_var:R:1:gap_variance_gradient:R:3 EPS_SCF=1e-06 energy=-670.8047611340534 units=gap_units Integrated_spin_density=1.924e-05 opt_dir=/home/tks32/dft_pbe/apr_8_opt_fragments_subset/singlepoint_5_CH3OH time=85.0 free_energy=-670.71035641 cutoff=8.0 nneightol=1.2 pbc="T T T"
C       -0.67569513       0.41780884      -0.05411275      -0.93756521       1.14422777       0.15124468      -1.02460944       2.79419849      -0.44541474        0        0        0       14      -0.73508987      -1.12368007       0.65096069    -154.68543207       0.00466166      -0.00232056       0.00321667       0.00103353
O        0.80712763      -0.35327952       0.08832240       1.42762877      -0.65604770      -0.89223613      -0.65605946      -1.88794114      -1.63822240        0        0        0       14       0.54210428       0.84892556      -0.88924336    -436.58773084       0.00883753      -0.02522446       0.00673191       0.00049280
H       -1.40829984      -0.33285404      -0.46037155       0.35515215       0.16433642      -0.51311865       0.38200166      -0.37013248      -0.64610354        0        0        0       11       0.43145641       0.55660674       0.20500420     -16.01917342       0.00416825      -0.00306330       0.00147123       0.00169302
H        0.79512441      -1.07989040       0.73206594      -0.46640640      -1.02841868       0.37070024       0.94958411       0.04093250       1.03469115        0        0        0       15      -0.10499679      -0.58970789       0.49442586     -15.77557830       0.00619073       0.01328128       0.00208117      -0.00925028
H       -0.97447851       0.76414150       0.96067548      -0.00703248      -0.18512165       0.05159471      -1.18211725      -1.57365105      -0.04703684        0        0        0       15      -0.02540846      -0.00774623      -0.30077659     -15.96667768       0.00449107      -0.00219485       0.00041809       0.00027790
H       -0.52819616       1.24836167      -0.74704008      -0.39824022       0.02628070       0.29656273       1.39869531       0.15989496       1.29424486        0        0        0       15       0.13453020       0.41590954      -0.35484491     -16.12410516       0.00497957      -0.00800043       0.00403665       0.00099726
H        1.98441760      -0.66428806      -0.51953943       0.02646339       0.53474315       0.53525241       0.13250507       0.83669872       0.44784151        0        0        0       12      -0.24259576      -0.10030765       0.19447410     -15.64606368       0.01009730       0.02752231      -0.01795571       0.00475577
7
Lattice="13.0 0.0 0.0 0.0 9.0 0.0 0.0 0.0 9.0" Properties=species:S:1:pos:R:3:momenta:R:3:forces:R:3:map_shift:I:3:n_neighb:I:1:force:R:3:local_energy:R:1:gap_var:R:1:gap_variance_gradient:R:3 EPS_SCF=1e-06 energy=-670.8325794298269 units=gap_units Integrated_spin_density=1.924e-05 opt_dir=/home/tks32/dft_pbe/apr_8_opt_fragments_subset/singlepoint_5_CH3OH time=86.0 free_energy=-670.83335462 cutoff=8.0 nneightol=1.2 pbc="T T T"
C       -0.67772653       0.42926841      -0.05128455      -0.96104763       1.38937869       0.18357639      -0.59048695       2.35854852      -2.08513368        0        0        0       13      -0.90837138      -1.06686627       0.51812373    -154.65549574       0.00470085      -0.00041431       0.00290974       0.00056328
O        0.82693078      -0.34520041       0.10580668       1.39323556      -0.90182960      -1.25872134      -0.13863532      -2.37227564      -1.57447944        0        0        0       14       1.14738346       0.64226950      -1.01935932    -436.65831000       0.00841549      -0.02727969       0.00634468       0.00161653
H       -1.40241049      -0.33377185      -0.44846238       0.35854273       0.21658302      -0.43873678      -0.68919976      -0.20649051       1.53061587        0        0        0       11       0.43632183       0.58244741       0.20314176     -15.99544262       0.00421168      -0.00217164       0.00113400       0.00143363
H        0.79612126      -1.12508485       0.68771983      -0.38058144      -0.97587983       0.50656774       0.75860303       0.29594694       1.15306966        0        0        0       14      -0.10187142      -0.58186781       0.43088581     -15.78719900       0.00641707       0.01330090       0.00237869      -0.00816911
H       -0.96683188       0.77638207       0.96369997      -0.16903296      -0.32354872       0.02695121      -0.77470719      -1.13938312      -0.26929338        0        0        0       15      -0.02311027       0.00841182      -0.25992930     -15.98573738       0.00449018      -0.00158262       0.00024943       0.00024546
H       -0.53148332       1.24998637      -0.75719167      -0.23159787       0.03822920       0.39962439       1.48915824       0.16723028       1.01859774        0        0        0       15       0.10132226       0.42729903      -0.30773678     -16.13060179       0.00507519      -0.00774824       0.00429130       0.00079988
H        1.95540017      -0.65157974      -0.50028788      -0.00951839       0.55706725       0.58073838      -0.05473205       0.89642353       0.22662323        0        0        0       12      -0.65167449      -0.01169368       0.43487408     -15.61979289       0.00909723       0.02589561      -0.01730784       0.00351033
7
Lattice="13.0 0.0 0.0 0.0 9.0 0.0 0.0 0.0 9.0" Properties=species:S:1:pos:R:3:momenta:R:3:forces:R:3:map_shift:I:3:n_neighb:I:1:force:R:3:local_energy:R:1:gap_var:R:1:gap_variance_gradient:R:3 EPS_SCF=1e-06 energy=-670.881334982253 units=gap_units Integrated_spin_density=1.924e-05 opt_dir=/home/tks32/dft_pbe/apr_8_opt_fragments_subset/singlepoint_5_CH3OH time=87.0 free_energy=-670.83911409 cutoff=8.0 nneightol=1.2 pbc="T T T"
C       -0.68063855       0.43999831      -0.04859286      -0.78851228       1.64452022      -0.02165384      -0.51322072       1.30888191      -3.30655327        0        0        0       13      -1.04799765      -0.97496807       0.37971287    -154.62830876       0.00473755       0.00123721       0.00250680       0.00025243
O        0.84576996      -0.33924557       0.12498857       1.21869057      -1.27336377      -1.38810382       1.00649618      -1.96815515      -0.40925508        0        0        0       13       1.64081200       0.42997086      -1.11747783    -436.72940484       0.00799230      -0.02737939       0.00565032       0.00197656
H       -1.39710164      -0.33419507      -0.43735947       0.24517945       0.14771837      -0.18986022      -1.50292672       0.01557039       3.42359843        0        0        0       11       0.41929634       0.59470720       0.20050024     -15.97278209       0.00425906      -0.00163054       0.00084674       0.00115941
H        0.79753427      -1.16558516       0.64275036      -0.31382626      -0.87268316       0.63184932      -0.00778126       0.64934747       0.43236959        0        0        0       13      -0.01200400      -0.53907017       0.29996424     -15.80016200       0.00657577       0.01273112       0.00242044      -0.00670657
H       -0.96024120       0.78785204       0.96656349      -0.22686373      -0.36565054      -0.03801064       0.03316024      -0.22135851      -0.48314743        0        0        0       15      -0.02800577       0.02541628      -0.22089993     -16.00099646       0.00450570      -0.00101876       0.00014029       0.00021452
H       -0.53391923       1.25143270      -0.76667153      -0.10577174       0.09204868       0.42429774       1.29134634       0.09106807       0.54816654        0        0        0       15       0.06661202       0.42829759      -0.25817390     -16.13720562       0.00514701      -0.00737772       0.00442038       0.00061535
H        1.92859640      -0.64025726      -0.48167855      -0.02889602       0.62741019       0.58148144      -0.30707406       0.12464581      -0.20517877        0        0        0       12      -1.03871293       0.03564630       0.71637430     -15.61247521       0.00824892       0.02343809      -0.01598496       0.00248832
7
Lattice="13.0 0.0 0.0 0.0 9.0 0.0 0.0 0.0 9.0" Properties=species:S:1:pos:R:3:momenta:R:3:forces:R:3:map_shift:I:3:n_neighb:I:1:force:R:3:local_energy:R:1:gap_var:R:1:gap_variance_gradient:R:3 EPS_SCF=1e-06 energy=-670.9447722428351 units=gap_units Integrated_spin_density=1.924e-05 opt_dir=/home/tks32/dft_pbe/apr_8_opt_fragments_subset/singlepoint_5_CH3OH time=88.0 free_energy=-670.70700815 cutoff=8.0 nneightol=1.2 pbc="T T T"
C       -0.68434951       0.44998301      -0.04613639      -0.70276885       1.77386518      -0.25690740      -1.01884895       0.03020602      -2.91534917        0        0        0       13      -1.13498628      -0.86532882       0.24767934    -154.60342473       0.00477001       0.00250738       0.00207390       0.00009892
O        0.86364521      -0.33546424       0.14548441       1.21856898      -1.45982193      -1.38955572       1.98236383      -0.15797808       1.05468388        0        0        0       13       2.01077197       0.21928361      -1.19748848    -436.79586802       0.00759706      -0.02613425       0.00479987       0.00177325
H       -1.39247542      -0.33423148      -0.42720288       0.08292784       0.10351388       0.17474587      -1.55950345       0.06485525       3.83682009        0        0        0       12       0.38440543       0.59660104       0.19597822     -15.95149661       0.00430732      -0.00133685       0.00059831       0.00088968
H        0.79900446      -1.20150862       0.59790062      -0.34172232      -0.74871652       0.60157755      -0.63380242       1.09192033      -0.50680249        0        0        0       14       0.05066199      -0.50644081       0.22073393     -15.81547312       0.00665326       0.01180387       0.00221126      -0.00514186
H       -0.95460255       0.79858260       0.96929997      -0.19258890      -0.26571940      -0.13602690       1.07576986       0.93425472      -0.69268505        0        0        0       15      -0.04391147       0.04682834      -0.18352498     -16.01251543       0.00453972      -0.00063109       0.00016838       0.00024500
H       -0.53531371       1.25281766      -0.77535801       0.00664138       0.06599478       0.44018305       0.78405031      -0.04433895      -0.07269320        0        0        0       15       0.03287153       0.41833068      -0.20765030     -16.14355478       0.00519493      -0.00690494       0.00441806       0.00044996
H        1.90409151      -0.63017893      -0.46398773      -0.07105813       0.53088401       0.56598356      -0.63002919      -1.91891929      -0.70397406        0        0        0       12      -1.29981319       0.09072597       0.92427227     -15.62243956       0.00755406       0.02069588      -0.01426978       0.00168506
7
Lattice="13.0 0.0 0.0 0.0 9.0 0.0 0.0 0.0 9.0" Properties=species:S:1:pos:R:3:momenta:R:3:forces:R:3:map_shift:I:3:n_neighb:I:1:force:R:3:local_energy:R:1:gap_var:R:1:gap_variance_gradient:R:3 EPS_SCF=1e-06 energy=-671.0131659437645 units=gap_units Integrated_spin_density=1.924e-05 opt_dir=/home/tks32/dft_pbe/apr_8_opt_fragments_subset/singlepoint_5_CH3OH time=89.0 free_energy=-670.5287924 cutoff=8.0 nneightol=1.2 pbc="T T T"
C       -0.68876613       0.45924970      -0.04398438      -0.82848911       1.88230473      -0.46945715      -1.61631200      -0.79010505      -0.63965539        0        0        0       13      -1.17421724      -0.74471018       0.13032210    -154.58015670       0.00479754       0.00335909       0.00166012       0.00006562
O        0.88056937      -0.33389619       0.16694339       1.48828624      -1.44892147      -1.11960669       2.37180572       1.78223723       1.82385904        0        0        0       13       2.26122602       0.01131386      -1.26710578    -436.85509026       0.00724394      -0.02412047       0.00393391       0.00121889
H       -1.38861640      -0.33395928      -0.41806924      -0.06299751       0.08218233       0.46099558      -0.81148485      -0.09239484       2.54349017        0        0        0       12       0.33793979       0.59149056       0.18897473     -15.93175342       0.00435398      -0.00118343       0.00037772       0.00064739
H        0.80018566      -1.23313548       0.55375773      -0.40899187      -0.64994277       0.51167641      -0.73136758       1.45115693      -0.94782898        0        0        0       14       0.07696813      -0.49178975       0.19892845     -15.83156218       0.00665451       0.01076672       0.00182818      -0.00373112
H       -0.94979936       0.80864049       0.97193040      -0.02048658      -0.13334168      -0.19736485       1.86974231       1.79583909      -0.85540154        0        0        0       15      -0.05111899       0.06315686      -0.15831073     -16.02066527       0.00459347      -0.00005526       0.00014852       0.00015580
H       -0.53551855       1.25424840      -0.78316842       0.00938589       0.06370902       0.39548263      -0.08011970      -0.22124098      -0.91782855        0        0        0       15       0.00103078       0.39809801      -0.15746909     -16.14929177       0.00522031      -0.00635445       0.00429540       0.00031109
H        1.88194540      -0.62114763      -0.44740948      -0.17670706       0.20400984       0.41827408      -1.00226390      -3.92549239      -1.00663476        0        0        0       12      -1.45182850       0.17244065       1.06466030     -15.64464634       0.00700185       0.01758781      -0.01224385       0.00133233
7
Lattice="13.0 0.0 0.0 0.0 9.0 0.0 0.0 0.0 9.0" Properties=species:S:1:pos:R:3:momenta:R:3:forces:R:3:map_shift:I:3:n_neighb:I:1:force:R:3:local_energy:R:1:gap_var:R:1:gap_variance_gradient:R:3 EPS_SCF=1e-06 energy=-671.0798146471996 units=gap_units Integrated_spin_density=1.924e-05 opt_dir=/home/tks32/dft_pbe/apr_8_opt_fragments_subset/singlepoint_5_CH3OH time=90.0 free_energy=-670.49286335 cutoff=8.0 nneightol=1.2 pbc="T T T"
C       -0.69378861       0.46786140      -0.04217576      -0.82734731       1.85880104      -0.35784557      -1.69147078      -0.74172734       1.97742853        0        0        0       13      -1.17383797      -0.61879438       0.03296830    -154.55773759       0.00482062       0.00381767       0.00129749       0.00010238
O        0.89656640      -0.33458778       0.18905296       1.59044282      -1.16691136      -0.89610095       2.34621634       2.19960423       2.02476552        0        0        0       13       2.39641875      -0.18860904      -1.33019940    -436.90632219       0.00693655      -0.02178693       0.00315444       0.00049754