7
Lattice="13.0 0.0 0.0 0.0 9.0 0.0 0.0 0.0 9.0" Properties=species:S:1:pos:R:3:momenta:R:3:forces:R:3 EPS_SCF=1e-06 energy=-670.0687876864224 units=gap_units Integrated_spin_density=1.92365e-05 opt_dir=/home/tks32/dft_pbe/apr_8_opt_fragments_subset/singlepoint_5_CH3OH time=0.0 free_energy=-670.0687876864224 pbc="T T T"
C       -0.85170330       0.30253923       0.00463343       5.45576389      -0.78295391      -0.42330267      -0.12734795      -0.05430427      -0.00006388
O       -0.23928017      -0.99555437      -0.00239197       6.08037964       1.18098515      -0.51859695      -0.37016440       0.17051029       0.01590349
H       -1.93557585       0.13626839       0.02907194      -0.04505419       0.01870235       0.27550326      -0.14037653       0.17003808       0.00340453
H        0.72321841      -0.86855210      -0.02397487       0.87220168      -0.41663278       0.71450882       0.59833135      -0.25716188      -0.03308861
H       -0.57174008       0.89244562       0.89290117       0.63788730      -0.13487010      -0.04519662       0.07899639      -0.06650139       0.08263577
H       -0.61083911       0.88370095      -0.90069729       0.06259361       0.13476928      -0.00291584       0.06889960      -0.07351054      -0.07606432
H        3.48592011      -0.35084770       0.00045760      -0.36793659       0.00000000       0.00000000      -0.10833847       0.11092971       0.00727303
7
Lattice="13.0 0.0 0.0 0.0 9.0 0.0 0.0 0.0 9.0" Properties=species:S:1:pos:R:3:momenta:R:3:forces:R:3 EPS_SCF=1e-06 energy=-670.0423625263446 units=gap_units Integrated_spin_density=1.92365e-05 opt_dir=/home/tks32/dft_pbe/apr_8_opt_fragments_subset/singlepoint_5_CH3OH time=1.0 free_energy=-670.0423625263446 pbc="T T T"
C       -0.83160734       0.30387800      -0.00279677       0.60541121      -0.74998533      -0.29786063      -1.16895704       0.04965002       0.25425372
O       -0.22102176      -0.98666820      -0.02959537       0.17932296       1.08621745      -0.58428125       1.16248378      -0.04453088      -0.09334345
H       -1.95062243       0.13820452       0.03426305      -0.37059482       0.11145640       0.28244096       1.21037740       0.25414935      -0.08043303
H        0.72696229      -0.89483912       0.01829264       0.42679671      -0.45185919       0.71915281      -1.25952584      -0.20191175      -0.07710776
H       -0.54617582       0.88250003       0.88741010       0.22061079      -0.12014507      -0.04133542       0.07569801      -0.00256622       0.07133197
H       -0.60350824       0.89118168      -0.90186553      -0.31490715       0.11583132      -0.04430264       0.19507674      -0.25054890      -0.06905611
H        3.42597330      -0.33425690      -0.00570812      -0.74663970       0.00848441      -0.03381383      -0.21515305       0.19575838      -0.00564535
7
Lattice="13.0 0.0 0.0 0.0 9.0 0.0 0.0 0.0 9.0" Properties=species:S:1:pos:R:3:momenta:R:3:forces:R:3 EPS_SCF=1e-06 energy=-669.926428165459 units=gap_units Integrated_spin_density=1.92365e-05 opt_dir=/home/tks32/dft_pbe/apr_8_opt_fragments_subset/singlepoint_5_CH3OH time=2.0 free_energy=-669.926428165459 pbc="T T T"
C       -0.81354530       0.30494641      -0.01000628       0.40784524      -0.66489645      -0.35241116      -1.64099982       0.27523659       0.46399183
O       -0.20389546      -0.97826696      -0.05684530       0.36970388       1.11225934      -0.44399823       2.18965154      -0.40889963      -0.04987043
H       -1.95885815       0.14037467       0.03930798      -0.23792528       0.06958833       0.22582726       1.94182664       0.24376188      -0.15988214
H        0.73014831      -0.92119304       0.06017210       0.25243030      -0.43434371       0.68875403      -2.43423291      -0.00096747      -0.30709959
H       -0.52235295       0.87327171       0.88292598       0.22646736      -0.14271661      -0.03543513       0.05866101       0.08892290       0.02005654
H       -0.59790658       0.89873011      -0.90381797      -0.28655100       0.04142862      -0.05436858       0.31956868      -0.45221119       0.04255273
H        3.36641013      -0.31786288      -0.01173652      -0.73197050       0.01868047      -0.02836819      -0.43447513       0.25415692      -0.00974894
7
Lattice="13.0 0.0 0.0 0.0 9.0 0.0 0.0 0.0 9.0" Properties=species:S:1:pos:R:3:momenta:R:3:forces:R:3 EPS_SCF=1e-06 energy=-669.8634274004843 units=gap_units Integrated_spin_density=1.92365e-05 opt_dir=/home/tks32/dft_pbe/apr_8_opt_fragments_subset/singlepoint_5_CH3OH time=3.0 free_energy=-669.8634274004843 pbc="T T T"
C       -0.79918346       0.30543318      -0.01682030       0.24206383      -0.66818567      -0.23142061      -1.73376804       0.54086872       0.71512896
O       -0.18741742      -0.97044712      -0.08417416       0.63544674       1.10736623      -0.40817199       2.46118348      -0.90004006      -0.01518832
H       -1.95558350       0.14167473       0.04391236      -0.01826064       0.07331815       0.18538303       2.15571171       0.17102914      -0.20894337
H        0.73296965      -0.94473720       0.10161527      -0.06159485      -0.41842329       0.60761589      -2.68779689       0.23758222      -0.53202732
H       -0.50245998       0.86553772       0.88027053       0.23756117      -0.11314631      -0.05205079      -0.02843754       0.23700937      -0.02803200
H       -0.59592318       0.90655605      -0.90707040      -0.23199520      -0.00887299      -0.06046480       0.45033275      -0.54749018       0.08728579
H        3.30759790      -0.30401734      -0.01773330      -0.80322104       0.02794387      -0.04089073      -0.61722546       0.26104079      -0.01822374
7
Lattice="13.0 0.0 0.0 0.0 9.0 0.0 0.0 0.0 9.0" Properties=species:S:1:pos:R:3:momenta:R:3:forces:R:3 EPS_SCF=1e-06 energy=-669.9214192362601 units=gap_units Integrated_spin_density=1.92365e-05 opt_dir=/home/tks32/dft_pbe/apr_8_opt_fragments_subset/singlepoint_5_CH3OH time=4.0 free_energy=-669.9214192362601 pbc="T T T"
C       -0.78909832       0.30531426      -0.02303583       0.09695241      -0.46829551      -0.05211312      -1.49988412       0.93600013       0.87179218
O       -0.17179355      -0.96346226      -0.11155643       0.79128003       0.88555330      -0.50905168       2.06219386      -1.44101877      -0.07527736
H       -1.93860458       0.14218112       0.04772347       0.21668213       0.08299046       0.13480893       1.98089256       0.04138260      -0.20245465
H        0.73467597      -0.96586153       0.14246113      -0.34263919      -0.36304526       0.51056024      -2.27610134       0.45223242      -0.62984087
H       -0.48711059       0.85977882       0.87982375       0.21550134      -0.07597154      -0.03326313      -0.24057371       0.39705175      -0.07049895
H       -0.59797240       0.91461615      -0.91163885      -0.14069241      -0.07464127      -0.04621662       0.56097160      -0.60564839       0.15536527
H        3.24990347      -0.29256656      -0.02377725      -0.83708431       0.01340981      -0.00472463      -0.58749885       0.22000027      -0.04908562
7
Lattice="13.0 0.0 0.0 0.0 9.0 0.0 0.0 0.0 9.0" Properties=species:S:1:pos:R:3:momenta:R:3:forces:R:3 EPS_SCF=1e-06 energy=-670.0246549732746 units=gap_units Integrated_spin_density=1.92365e-05 opt_dir=/home/tks32/dft_pbe/apr_8_opt_fragments_subset/singlepoint_5_CH3OH time=5.0 free_energy=-670.0246549732746 pbc="T T T"
C       -0.78062779       0.30509399      -0.02850916      -0.01055651      -0.24397781       0.15214617      -1.04321306       1.12087678       0.95255800
O       -0.15645809      -0.95682750      -0.13875518       0.88302482       0.70608064      -0.59884458       1.03278913      -1.91114048      -0.28736088
H       -1.91524054       0.14201771       0.05106116       0.36769236       0.03634687       0.09026527       1.41385443      -0.09799378      -0.14617224
H        0.73368803      -0.98744656       0.18182775      -0.47288385      -0.30471476       0.48093729      -1.38005779       0.58717715      -0.51881554
H       -0.47392265       0.85599164       0.88033635       0.14724989      -0.04209193      -0.05149219      -0.42520042       0.62474879       0.00325695
H       -0.60117906       0.92246330      -0.91632912      -0.07521088      -0.18029304      -0.03109141       0.63179461      -0.49028555       0.08442848
H        3.19374009      -0.28129257      -0.02963180      -0.83931582       0.02865003      -0.04192054      -0.22996690       0.16661709      -0.08789477
7
Lattice="13.0 0.0 0.0 0.0 9.0 0.0 0.0 0.0 9.0" Properties=species:S:1:pos:R:3:momenta:R:3:forces:R:3 EPS_SCF=1e-06 energy=-670.074760779626 units=gap_units Integrated_spin_density=1.92365e-05 opt_dir=/home/tks32/dft_pbe/apr_8_opt_fragments_subset/singlepoint_5_CH3OH time=6.0 free_energy=-670.074760779626 pbc="T T T"
C       -0.77249473       0.30497014      -0.03313750      -0.09931723      -0.14189494       0.24212349      -0.02221506       1.19881486       1.02986603
O       -0.14058646      -0.95029112      -0.16557503       1.01896820       0.55630284      -0.62722857      -0.20543439      -2.16837062      -0.67274042
H       -1.88943074       0.14078449       0.05384963       0.43815765       0.02858902       0.12535246       0.33411776      -0.24323899      -0.05505798
H        0.72941587      -1.00965906       0.21941997      -0.57315523      -0.22281661       0.42267672      -0.18171057       0.57680987      -0.14925659
H       -0.46210396       0.85425410       0.88123396       0.04616807       0.02127070      -0.05067151      -0.54886834       0.77418629       0.01127514
H       -0.60424960       0.92991351      -0.92042426      -0.02248663      -0.28845300      -0.05493804       0.55387060      -0.23027721      -0.05748630
H        3.13944963      -0.26997204      -0.03536676      -0.80833483       0.04700201      -0.05731455       0.07024001       0.09207580      -0.10659988
7
Lattice="13.0 0.0 0.0 0.0 9.0 0.0 0.0 0.0 9.0" Properties=species:S:1:pos:R:3:momenta:R:3:forces:R:3 EPS_SCF=1e-06 energy=-670.0174778519472 units=gap_units Integrated_spin_density=1.92365e-05 opt_dir=/home/tks32/dft_pbe/apr_8_opt_fragments_subset/singlepoint_5_CH3OH time=7.0 free_energy=-670.0174778519472 pbc="T T T"
C       -0.76358652       0.30509024      -0.03686197      -0.04233945       0.01869316       0.44237282       1.34955858       1.22896122       0.87078848
O       -0.12320444      -0.94359570      -0.19180815       0.81485428       0.36009257      -0.80902528      -1.23538670      -2.19958970      -1.15411774
H       -1.86485378       0.13795453       0.05616617       0.49052446      -0.03664558       0.15399070      -1.21863835      -0.37214110       0.09641643
H        0.72154051      -1.03208505       0.25486922      -0.47155674      -0.15261112       0.47160435       0.94766465       0.41880846       0.39344721
H       -0.45100514       0.85459660       0.88192925      -0.01409878       0.08236108      -0.09615703      -0.54021470       0.87538483       0.03901270
H       -0.60620120       0.93684423      -0.92334955       0.02950822      -0.29464013      -0.08961615       0.33491975       0.04699573      -0.15184298
H        3.08731057      -0.25880485      -0.04094496      -0.80689199       0.02275002      -0.07316941       0.36209678       0.00158056      -0.09370410
7
Lattice="13.0 0.0 0.0 0.0 9.0 0.0 0.0 0.0 9.0" Properties=species:S:1:pos:R:3:momenta:R:3:forces:R:3 EPS_SCF=1e-06 energy=-669.8904427766738 units=gap_units Integrated_spin_density=1.92365e-05 opt_dir=/home/tks32/dft_pbe/apr_8_opt_fragments_subset/singlepoint_5_CH3OH time=8.0 free_energy=-669.8904427766738 pbc="T T T"
C       -0.75304258       0.30554174      -0.03967590       0.21206286       0.10713370       0.48936341       2.50806108       1.19439908       0.56646539
O       -0.10352528      -0.93650459      -0.21723037       0.60921709       0.29093217      -0.92877475      -1.44929201      -2.24442891      -1.41883438
H       -1.84454122       0.13308377       0.05821619       0.31079649      -0.13939221       0.14347273      -2.73549180      -0.39542731       0.28151967
H        0.70997075      -1.05418754       0.28777754      -0.40906827      -0.12137689       0.53110908       1.38271707       0.26066927       0.76442265
H       -0.44009764       0.85695364       0.88188894      -0.06519827       0.15674865      -0.08242729      -0.44567724       0.93664890       0.09336567
H       -0.60630217       0.94319272      -0.92472505       0.05415633      -0.29733045      -0.05864098       0.06131274       0.31686819      -0.22495594
H        3.03753814      -0.24807974      -0.04625136      -0.71196623       0.00328503      -0.09410219       0.67837017      -0.06872922      -0.06198306
7
Lattice="13.0 0.0 0.0 0.0 9.0 0.0 0.0 0.0 9.0" Properties=species:S:1:pos:R:3:momenta:R:3:forces:R:3 EPS_SCF=1e-06 energy=-669.8081903045136 units=gap_units Integrated_spin_density=1.92365e-05 opt_dir=/home/tks32/dft_pbe/apr_8_opt_fragments_subset/singlepoint_5_CH3OH time=9.0 free_energy=-669.8081903045136 pbc="T T T"
C       -0.74032996       0.30635743      -0.04162346       0.25296756       0.13958671       0.50205644       2.80213158       1.07272115       0.39312570
O       -0.08107751      -0.92881978      -0.24161424       0.69648803       0.07979719      -0.99682625      -1.05775927      -2.27189670      -1.37276847
H       -1.83059658       0.12589042       0.06024067       0.05966739      -0.13288842       0.20443077      -3.39498956      -0.35205006       0.37457447
H        0.69482136      -1.07549569       0.31781452      -0.29712038      -0.10076583       0.62230580       1.22817775       0.17955713       0.85955409
H       -0.42899023       0.86115710       0.88070249      -0.08642346       0.25570079      -0.08442992      -0.29402128       0.90937968       0.12947721
H       -0.60410448       0.94896618      -0.92437177       0.02112068      -0.26838729      -0.10274659      -0.14880187       0.56234619      -0.35277543
H        2.99027740      -0.23805565      -0.05114822      -0.64669982       0.02695685      -0.14479025       0.86526264      -0.10005738      -0.03118757
7
Lattice="13.0 0.0 0.0 0.0 9.0 0.0 0.0 0.0 9.0" Properties=species:S:1:pos:R:3:momenta:R:3:forces:R:3 EPS_SCF=1e-06 energy=-669.8476183281246 units=gap_units Integrated_spin_density=1.92365e-05 opt_dir=/home/tks32/dft_pbe/apr_8_opt_fragments_subset/singlepoint_5_CH3OH time=10.0 free_energy=-669.8476183281246 pbc="T T T"
C       -0.72728285       0.30729953      -0.04272329       0.50167626       0.24066968       0.47538861       1.77010155       0.89548828       0.41943903
O       -0.05709853      -0.92123039      -0.26486389       0.70939575      -0.11562789      -1.04656275      -0.11634876      -2.29149383      -0.80810805
H       -1.81756852       0.11732331       0.06182702      -0.27333333      -0.16629365       0.24585579      -2.62440417      -0.19181193       0.22801320
H        0.67633749      -1.09635781       0.34528645      -0.23330862      -0.07209215       0.68984926       0.46567897       0.25021516       0.46969892
H       -0.41876747       0.86711224       0.87921232      -0.09795586       0.34438789      -0.11049968      -0.13015253       0.75259413       0.06975688
H       -0.60115745       0.95439267      -0.92299222      -0.01704502      -0.24621251      -0.14217714      -0.29447494       0.69245036      -0.36702426
H        2.94553733      -0.22853956      -0.05574640      -0.58942918       0.01516864      -0.11185409       0.92959988      -0.10744217      -0.01177572
7
Lattice="13.0 0.0 0.0 0.0 9.0 0.0 0.0 0.0 9.0" Properties=species:S:1:pos:R:3:momenta:R:3:forces:R:3 EPS_SCF=1e-06 energy=-669.9056519536814 units=gap_units Integrated_spin_density=1.92365e-05 opt_dir=/home/tks32/dft_pbe/apr_8_opt_fragments_subset/singlepoint_5_CH3OH time=11.0 free_energy=-669.9056519536814 pbc="T T T"
C       -0.71253295       0.30860301      -0.04317304       0.60285137       0.34793845       0.58773693      -0.18310067       0.59831716       0.43975745
O       -0.03078303      -0.91299952      -0.28666055       0.83347414      -0.48915510      -1.14308433       1.00238783      -2.11515343       0.17089401
H       -1.81059855       0.10643822       0.06349885      -0.48512680      -0.17038673       0.25502229      -0.84475456       0.08881812      -0.13577667
H        0.65514985      -1.11607237       0.36983613      -0.22872360      -0.00823690       0.73076147      -0.50804224       0.38648683      -0.30413461
H       -0.40827653       0.87443272       0.87657841      -0.07745366       0.45683699      -0.10568388       0.03970745       0.51075463      -0.02532092
H       -0.59625855       0.95959978      -0.92023481      -0.11030464      -0.16230264      -0.18404608      -0.37748246       0.64321026      -0.13510000
H        2.90329975      -0.22000184      -0.05984499      -0.53471679       0.02530593      -0.14070640       0.87128464      -0.11243358      -0.01031927
7
Lattice="13.0 0.0 0.0 0.0 9.0 0.0 0.0 0.0 9.0" Properties=species:S:1:pos:R:3:momenta:R:3:forces:R:3 EPS_SCF=1e-06 energy=-669.8535086214774 units=gap_units Integrated_spin_density=1.92365e-05 opt_dir=/home/tks32/dft_pbe/apr_8_opt_fragments_subset/singlepoint_5_CH3OH time=12.0 free_energy=-669.8535086214774 pbc="T T T"
C       -0.69696292       0.31020513      -0.04307009       0.43899777       0.41135516       0.66587927      -1.79484712       0.41884401       0.22808686
O       -0.00253685      -0.90438860      -0.30685075       0.88247121      -0.60624440      -1.02806412       1.87224460      -1.71736983       1.20792460
H       -1.80728077       0.09383033       0.06503143      -0.47586332      -0.17809269       0.16915308       0.78901261       0.39181303      -0.43411845
H        0.63155476      -1.13504075       0.39167753      -0.27193557       0.04677747       0.63323934      -1.20691366       0.42838782      -1.10123169
H       -0.39787325       0.88287756       0.87315355      -0.02355590       0.44664113      -0.11241946       0.06605443       0.14087235      -0.21791660
H       -0.59028450       0.96481384      -0.91646208      -0.12154998      -0.12038040      -0.19227285      -0.42946154       0.46814775       0.33909735
H        2.86338352      -0.21229751      -0.06347960      -0.42856421      -0.00005626      -0.13551528       0.70391069      -0.13069512      -0.02184206
7
Lattice="13.0 0.0 0.0 0.0 9.0 0.0 0.0 0.0 9.0" Properties=species:S:1:pos:R:3:momenta:R:3:forces:R:3 EPS_SCF=1e-06 energy=-669.7390438111702 units=gap_units Integrated_spin_density=1.92365e-05 opt_dir=/home/tks32/dft_pbe/apr_8_opt_fragments_subset/singlepoint_5_CH3OH time=13.0 free_energy=-669.7390438111702 pbc="T T T"
C       -0.68159822       0.31200272      -0.04251437       0.19684743       0.31005074       0.66662135      -2.63286539       0.35881871      -0.13525280
O        0.02715768      -0.89568714      -0.32525873       1.16041015      -0.63043898      -0.89252241       2.29613791      -1.18473980       1.95399981
H       -1.80462480       0.08027815       0.06618073      -0.34244839      -0.09906631       0.11817694       1.70785089       0.61275932      -0.52732139
H        0.60580774      -1.15382595       0.41098733      -0.40741426       0.09857663       0.48865377      -1.45078010       0.33403749      -1.60055865
H       -0.38800450       0.89218067       0.86937956      -0.03199652       0.42220389      -0.14761872      -0.00153752      -0.26598196      -0.38720819
H       -0.58424563       0.97022475      -0.91210536      -0.17035460      -0.07747591      -0.08828635      -0.43258547       0.30384823       0.73511043
H        2.82550773      -0.20517321      -0.06666915      -0.40504381      -0.02385005      -0.14502458       0.51377969      -0.15874199      -0.03876921
7
Lattice="13.0 0.0 0.0 0.0 9.0 0.0 0.0 0.0 9.0" Properties=species:S:1:pos:R:3:momenta:R:3:forces:R:3 EPS_SCF=1e-06 energy=-669.6718223839542 units=gap_units Integrated_spin_density=1.92365e-05 opt_dir=/home/tks32/dft_pbe/apr_8_opt_fragments_subset/singlepoint_5_CH3OH time=14.0 free_energy=-669.6718223839542 pbc="T T T"
C       -0.66765284       0.31383461      -0.04157958      -0.04373887       0.40425845       0.56455235      -3.03870525       0.29676392      -0.45897518
O        0.05776547      -0.88727639      -0.34165994       1.36344366      -0.71509357      -0.60889615       2.30754737      -0.57918891       2.31555888
H       -1.79892252       0.06680031       0.06669177      -0.14370136      -0.02876661       0.09738068       2.09824994       0.67818748      -0.52139812
H        0.57809956      -1.17310740       0.42780913      -0.50370859       0.08554534       0.31256217      -1.32915423       0.14203844      -1.72044585
H       -0.37927870       0.90208313       0.86580993      -0.05679540       0.39106974      -0.25552787       0.01045671      -0.56124245      -0.38497600
H       -0.57931705       0.97594783      -0.90768087      -0.20989248      -0.05329449       0.02862674      -0.39119062       0.21436473       0.82841439
H        2.78930608      -0.19828209      -0.06939044      -0.40560696      -0.08371887      -0.13869793       0.34279607      -0.19092321      -0.05817813
7
Lattice="13.0 0.0 0.0 0.0 9.0 0.0 0.0 0.0 9.0" Properties=species:S:1:pos:R:3:momenta:R:3:forces:R:3 EPS_SCF=1e-06 energy=-669.691081323624 units=gap_units Integrated_spin_density=1.92365e-05 opt_dir=/home/tks32/dft_pbe/apr_8_opt_fragments_subset/singlepoint_5_CH3OH time=15.0 free_energy=-669.691081323624 pbc="T T T"
C       -0.65629958       0.31551210      -0.04031305      -0.27182460       0.42681446       0.54816654      -3.25847126       0.24817950      -0.58311521
O        0.08881609      -0.87952811      -0.35575558       1.49731807      -0.81646626      -0.44068703       2.00502931       0.04236304       2.23418891
H       -1.78659228       0.05447609       0.06637271       0.06078057       0.06391883       0.03492908       2.19464158       0.62170606      -0.45126244
H        0.54865977      -1.19349527       0.44197914      -0.61128966       0.12496229       0.17247520      -0.93751649      -0.12085291      -1.43611739
H       -0.37232591       0.91232476       0.86299935      -0.04710026       0.30241912      -0.27294023       0.09122782      -0.75898406      -0.27120188
H       -0.57660743       0.98200326      -0.90372462      -0.25533303       0.00301973       0.11413787      -0.29127423       0.18860478       0.58180800
H        2.75434934      -0.19129283      -0.07155795      -0.37255110      -0.10466817      -0.15608142       0.19636327      -0.22101641      -0.07429998
7
Lattice="13.0 0.0 0.0 0.0 9.0 0.0 0.0 0.0 9.0" Properties=species:S:1:pos:R:3:momenta:R:3:forces:R:3 EPS_SCF=1e-06 energy=-669.7689927135303 units=gap_units Integrated_spin_density=1.92365e-05 opt_dir=/home/tks32/dft_pbe/apr_8_opt_fragments_subset/singlepoint_5_CH3OH time=16.0 free_energy=-669.7689927135303 pbc="T T T"
C       -0.64775212       0.31714366      -0.03886374      -0.64293100       0.60407243       0.34962047      -3.20627165       0.24252351      -0.54780028
O        0.12010553      -0.87223316      -0.36726561       1.65396469      -0.95923448      -0.19281203       1.45145631       0.64852220       1.61374550
H       -1.76735773       0.04336085       0.06520414       0.28270829       0.10997206       0.01595677       1.96858800       0.50032671      -0.31682822
H        0.51814200      -1.21506433       0.45347167      -0.65987583       0.09582123       0.09074315      -0.30831468      -0.46239481      -0.65268286
H       -0.36708268       0.92255678       0.86104849      -0.01622206       0.25609476      -0.29490036       0.17905251      -0.89817764      -0.15639607
H       -0.57620882       0.98846882      -0.90042229      -0.26718414      -0.00054381       0.18363705      -0.16281238       0.21346838       0.14620345
H        2.72015382      -0.18423263      -0.07317267      -0.35045996      -0.10618218      -0.15224506       0.07830190      -0.24426835      -0.08624152
7
Lattice="13.0 0.0 0.0 0.0 9.0 0.0 0.0 0.0 9.0" Properties=species:S:1:pos:R:3:momenta:R:3:forces:R:3 EPS_SCF=1e-06 energy=-669.8323180627381 units=gap_units Integrated_spin_density=1.92365e-05 opt_dir=/home/tks32/dft_pbe/apr_8_opt_fragments_subset/singlepoint_5_CH3OH time=17.0 free_energy=-669.8323180627381 pbc="T T T"
C       -0.64105189       0.31895900      -0.03739091      -0.86633164       0.44082086       0.20711645      -2.61914384       0.26922331      -0.33852551
O        0.15218505      -0.86469046      -0.37576843       1.70609893      -0.71529772      -0.07348307       0.87017939       1.19934764       0.69113959
H       -1.74478108       0.03287007       0.06361391       0.45204519       0.13747284       0.01278287       1.25200130       0.28723463      -0.09397531
H        0.48733350      -1.23735042       0.46175185      -0.62168454       0.03320657       0.04614083       0.35766098      -0.83757931       0.42213865
H       -0.36281250       0.93237501       0.85943897      -0.02599644       0.24796738      -0.24143132       0.27020692      -1.00788585      -0.06910257
H       -0.57714381       0.99526354      -0.89759714      -0.24989408      -0.00941608       0.20155994      -0.04597527       0.34704124      -0.52344169
H        2.68627072      -0.17742673      -0.07404826      -0.39423742      -0.13475385      -0.15268570      -0.08492948      -0.25738166      -0.08823316
7
Lattice="13.0 0.0 0.0 0.0 9.0 0.0 0.0 0.0 9.0" Properties=species:S:1:pos:R:3:momenta:R:3:forces:R:3 EPS_SCF=1e-06 energy=-669.8291433046941 units=gap_units Integrated_spin_density=1.92365e-05 opt_dir=/home/tks32/dft_pbe/apr_8_opt_fragments_subset/singlepoint_5_CH3OH time=18.0 free_energy=-669.8291433046941 pbc="T T T"
C       -0.63555938       0.32137046      -0.03594695      -1.04207487       0.57076805       0.30225287      -1.22706436       0.30715154      -0.20405043
O        0.18580172      -0.85661932      -0.38081271       1.67799774      -0.67452003      -0.17310104       0.52009387       1.63748110      -0.01826574
H       -1.72198023       0.02261730       0.06202728       0.48569744       0.13672053      -0.00280537      -0.17633144       0.00845742       0.23755255
H        0.45732482      -1.25987446       0.46609235      -0.55795738      -0.09562807       0.13084507       0.74246106      -1.12252653       1.23591435
H       -0.35919393       0.94156719       0.85764756       0.02793776       0.14019052      -0.26373563       0.32522868      -1.05766942      -0.01972189
H       -0.57867266       1.00229776      -0.89503728      -0.22293763       0.03228830       0.16554388      -0.00617556       0.50293235      -1.13779557
H        2.65227966      -0.17135894      -0.07397025      -0.36866306      -0.10981929      -0.15899979      -0.17821226      -0.27582645      -0.09363327
7
Lattice="13.0 0.0 0.0 0.0 9.0 0.0 0.0 0.0 9.0" Properties=species:S:1:pos:R:3:momenta:R:3:forces:R:3 EPS_SCF=1e-06 energy=-669.7837949344339 units=gap_units Integrated_spin_density=1.92365e-05 opt_dir=/home/tks32/dft_pbe/apr_8_opt_fragments_subset/singlepoint_5_CH3OH time=19.0 free_energy=-669.7837949344339 pbc="T T T"
C       -0.63024152       0.32459254      -0.03470141      -0.95834459       0.51117853       0.21922053       0.67918126       0.27379952      -0.46588836
O        0.22125498      -0.84708559      -0.38205243       1.69563966      -0.39312816      -0.12212649       0.50261207       1.92072442       0.07413320
H       -1.70275349       0.01171713       0.06076551       0.37023405       0.15136498       0.06036643      -1.98534183      -0.31672374       0.65511605
H        0.42914168      -1.28191399       0.46619510      -0.50067715      -0.20762423       0.23142793       0.68703471      -1.17524858       1.15113146
H       -0.35558982       0.94975704       0.85528228       0.05857742       0.03186138      -0.24907243       0.38452258      -0.94778357       0.08465745
H       -0.57964611       1.00947612      -0.89256796      -0.22707099       0.06367504       0.04466482      -0.01213891       0.54521056      -1.40389919
H        2.61783429      -0.16654325      -0.07292109      -0.43835840      -0.15732754      -0.18448079      -0.25586989      -0.29997860      -0.09525061
7
Lattice="13.0 0.0 0.0 0.0 9.0 0.0 0.0 0.0 9.0" Properties=species:S:1:pos:R:3:momenta:R:3:forces:R:3 EPS_SCF=1e-06 energy=-669.7633515691728 units=gap_units Integrated_spin_density=1.92365e-05 opt_dir=/home/tks32/dft_pbe/apr_8_opt_fragments_subset/singlepoint_5_CH3OH time=20.0 free_energy=-669.7633515691728 pbc="T T T"
C       -0.62424512       0.32888563      -0.03380501      -0.84496285       0.44868463       0.31246629       2.05097232       0.19338203      -1.10892058
O        0.25869874      -0.83523798      -0.37922998       1.73957303      -0.15782599      -0.24752712       0.58504176       2.06057325       0.79722583
H       -1.69036322      -0.00073035       0.06001727       0.11398426       0.10914751       0.14028638      -3.19465554      -0.55702716       1.02424258
H        0.40389016      -1.30278193       0.46196785      -0.46444676      -0.31464001       0.30840429       0.46045231      -1.02985574       0.36448528
H       -0.35161198       0.95666363       0.85205664       0.15136123      -0.00529192      -0.24886180       0.43312199      -0.74463542       0.22606034
H       -0.57905765       1.01674933      -0.89000208      -0.23218431       0.12557525      -0.07191341       0.03282491       0.40475160      -1.21815164
H        2.58268906      -0.16354832      -0.07100469      -0.46332459      -0.20564946      -0.19285463      -0.36775775      -0.32718857      -0.08494182
7