7
Lattice="13.0 0.0 0.0 0.0 9.0 0.0 0.0 0.0 9.0" Properties=species:S:1:pos:R:3:momenta:R:3:forces:R:3 EPS_SCF=1e-06 energy=-670.0687876864224 units=gap_units Integrated_spin_density=1.92365e-05 opt_dir=/home/tks32/dft_pbe/apr_8_opt_fragments_subset/singlepoint_5_CH3OH time=0.0 free_energy=-670.0687876864224 pbc="T T T"
C       -0.33762341       0.65338693       0.00417583       5.45576389      -0.78295391      -0.42330267      -0.12734795      -0.05430427      -0.00006388
O        0.27479972      -0.64470667      -0.00284957       6.08037964       1.18098515      -0.51859695      -0.37016440       0.17051029       0.01590349
H       -1.42149596       0.48711609       0.02861434      -0.04505419       0.01870235       0.27550326      -0.14037653       0.17003808       0.00340453
H        1.23729830      -0.51770440      -0.02443247       0.87220168      -0.41663278       0.71450882       0.59833135      -0.25716188      -0.03308861
H       -0.05766019       1.24329332       0.89244357       0.63788730      -0.13487010      -0.04519662       0.07899639      -0.06650139       0.08263577
H       -0.09675922       1.23454865      -0.90115489       0.06259361       0.13476928      -0.00291584       0.06889960      -0.07351054      -0.07606432
H        4.00000000       0.00000000       0.00000000      -0.36793659       0.00000000       0.00000000      -0.10833847       0.11092971       0.00727303
7
Lattice="13.0 0.0 0.0 0.0 9.0 0.0 0.0 0.0 9.0" Properties=species:S:1:pos:R:3:momenta:R:3:forces:R:3 EPS_SCF=1e-06 energy=-670.0423625263446 units=gap_units Integrated_spin_density=1.92365e-05 opt_dir=/home/tks32/dft_pbe/apr_8_opt_fragments_subset/singlepoint_5_CH3OH time=1.0 free_energy=-670.0423625263446 pbc="T T T"
C       -0.33183471       0.64704107       0.00131177       0.60541121      -0.74998533      -0.29786063      -1.16895704       0.04965002       0.25425372
O        0.27534451      -0.63779653      -0.00626590       0.17932296       1.08621745      -0.58428125       1.16248378      -0.04453088      -0.09334345
H       -1.46205534       0.49506469       0.05577850      -0.37059482       0.11145640       0.28244096       1.21037740       0.25414935      -0.08043303
H        1.28291385      -0.55920492       0.04547417       0.42679671      -0.45185919       0.71915281      -1.25952584      -0.20191175      -0.07710776
H       -0.03474214       1.23100526       0.88860161       0.22061079      -0.12014507      -0.04133542       0.07569801      -0.00256622       0.07133197
H       -0.12924345       1.24719832      -0.90374111      -0.31490715       0.11583132      -0.04430264       0.19507674      -0.25054890      -0.06905611
H        3.92688696      -0.00087251      -0.00229139      -0.74663970       0.00848441      -0.03381383      -0.21515305       0.19575838      -0.00564535
7
Lattice="13.0 0.0 0.0 0.0 9.0 0.0 0.0 0.0 9.0" Properties=species:S:1:pos:R:3:momenta:R:3:forces:R:3 EPS_SCF=1e-06 energy=-669.926428165459 units=gap_units Integrated_spin_density=1.92365e-05 opt_dir=/home/tks32/dft_pbe/apr_8_opt_fragments_subset/singlepoint_5_CH3OH time=2.0 free_energy=-669.926428165459 pbc="T T T"
C       -0.32769686       0.64141334      -0.00149499       0.40784524      -0.66489645      -0.35241116      -1.64099982       0.27523659       0.46399183
O        0.27693868      -0.63109036      -0.00918155       0.36970388       1.11225934      -0.44399823       2.18965154      -0.40889963      -0.04987043
H       -1.49338551       0.50294317       0.08034909      -0.23792528       0.06958833       0.22582726       1.94182664       0.24376188      -0.15988214
H        1.31739962      -0.60266600       0.11436725       0.25243030      -0.43434371       0.68875403      -2.43423291      -0.00096747      -0.30709959
H       -0.01189448       1.21903904       0.88559039       0.22646736      -0.14271661      -0.03543513       0.05866101       0.08892290       0.02005654
H       -0.15827220       1.25523200      -0.91037865      -0.28655100       0.04142862      -0.05436858       0.31956868      -0.45221119       0.04255273
H        3.85530435      -0.00073962      -0.00638447      -0.73197050       0.01868047      -0.02836819      -0.43447513       0.25415692      -0.00974894
7
Lattice="13.0 0.0 0.0 0.0 9.0 0.0 0.0 0.0 9.0" Properties=species:S:1:pos:R:3:momenta:R:3:forces:R:3 EPS_SCF=1e-06 energy=-669.8634274004843 units=gap_units Integrated_spin_density=1.92365e-05 opt_dir=/home/tks32/dft_pbe/apr_8_opt_fragments_subset/singlepoint_5_CH3OH time=3.0 free_energy=-669.8634274004843 pbc="T T T"
C       -0.32493834       0.63605689      -0.00420961       0.24206383      -0.66818567      -0.23142061      -1.73376804       0.54086872       0.71512896
O        0.27995139      -0.62437071      -0.01175917       0.63544674       1.10736623      -0.40817199       2.46118348      -0.90004006      -0.01518832
H       -1.50671742       0.50972804       0.10193173      -0.01826064       0.07331815       0.18538303       2.15571171       0.17102914      -0.20894337
H        1.32676508      -0.64411828       0.17834707      -0.06159485      -0.41842329       0.60761589      -2.68779689       0.23758222      -0.53202732
H        0.01059179       1.20707781       0.88240854       0.23756117      -0.11314631      -0.05205079      -0.02843754       0.23700937      -0.02803200
H       -0.18376919       1.25612265      -0.91616114      -0.23199520      -0.00887299      -0.06046480       0.45033275      -0.54749018       0.08728579
H        3.78159422       0.00216965      -0.00972390      -0.80322104       0.02794387      -0.04089073      -0.61722546       0.26104079      -0.01822374
7
Lattice="13.0 0.0 0.0 0.0 9.0 0.0 0.0 0.0 9.0" Properties=species:S:1:pos:R:3:momenta:R:3:forces:R:3 EPS_SCF=1e-06 energy=-669.9214192362601 units=gap_units Integrated_spin_density=1.92365e-05 opt_dir=/home/tks32/dft_pbe/apr_8_opt_fragments_subset/singlepoint_5_CH3OH time=4.0 free_energy=-669.9214192362601 pbc="T T T"
C       -0.32348832       0.63108645      -0.00538038       0.09695241      -0.46829551      -0.05211312      -1.49988412       0.93600013       0.87179218
O        0.28428494      -0.61834977      -0.01456622       0.79128003       0.88555330      -0.50905168       2.06219386      -1.44101877      -0.07527736
H       -1.49665979       0.51849242       0.11805432       0.21668213       0.08299046       0.13480893       1.98089256       0.04138260      -0.20245465
H        1.30699710      -0.68083562       0.23257169      -0.34263919      -0.36304526       0.51056024      -2.27610134       0.45223242      -0.62984087
H        0.03386805       1.19970001       0.87833880       0.21550134      -0.07597154      -0.03326313      -0.24057371       0.39705175      -0.07049895
H       -0.20182185       1.25310892      -0.92185274      -0.14069241      -0.07464127      -0.04621662       0.56097160      -0.60564839       0.15536527
H        3.70002063       0.00417571      -0.01180584      -0.83708431       0.01340981      -0.00472463      -0.58749885       0.22000027      -0.04908562
7
Lattice="13.0 0.0 0.0 0.0 9.0 0.0 0.0 0.0 9.0" Properties=species:S:1:pos:R:3:momenta:R:3:forces:R:3 EPS_SCF=1e-06 energy=-670.0246549732746 units=gap_units Integrated_spin_density=1.92365e-05 opt_dir=/home/tks32/dft_pbe/apr_8_opt_fragments_subset/singlepoint_5_CH3OH time=5.0 free_energy=-670.0246549732746 pbc="T T T"
C       -0.32286096       0.62826512      -0.00501905      -0.01055651      -0.24397781       0.15214617      -1.04321306       1.12087678       0.95255800
O        0.28938659      -0.61360647      -0.01786859       0.88302482       0.70608064      -0.59884458       1.03278913      -1.91114048      -0.28736088
H       -1.46718061       0.52426218       0.12974913       0.36769236       0.03634687       0.09026527       1.41385443      -0.09799378      -0.14617224
H        1.26532100      -0.71321046       0.28056966      -0.47288385      -0.30471476       0.48093729      -1.38005779       0.58717715      -0.51881554
H        0.05065689       1.19357213       0.87195828       0.14724989      -0.04209193      -0.05149219      -0.42520042       0.62474879       0.00325695
H       -0.21272142       1.24081882      -0.92447340      -0.07521088      -0.18029304      -0.03109141       0.63179461      -0.49028555       0.08442848
H        3.61787950       0.00753112      -0.01438761      -0.83931582       0.02865003      -0.04192054      -0.22996690       0.16661709      -0.08789477
7
Lattice="13.0 0.0 0.0 0.0 9.0 0.0 0.0 0.0 9.0" Properties=species:S:1:pos:R:3:momenta:R:3:forces:R:3 EPS_SCF=1e-06 energy=-670.074760779626 units=gap_units Integrated_spin_density=1.92365e-05 opt_dir=/home/tks32/dft_pbe/apr_8_opt_fragments_subset/singlepoint_5_CH3OH time=6.0 free_energy=-670.074760779626 pbc="T T T"
C       -0.32382581       0.62648364      -0.00365181      -0.09931723      -0.14189494       0.24212349      -0.02221506       1.19881486       1.02986603
O        0.29525856      -0.60965007      -0.02152553       1.01896820       0.55630284      -0.62722857      -0.20543439      -2.16837062      -0.67274042
H       -1.42530389       0.52688421       0.14029917       0.43815765       0.02858902       0.12535246       0.33411776      -0.24323899      -0.05505798
H        1.21463445      -0.73915218       0.32453816      -0.57315523      -0.22281661       0.42267672      -0.18171057       0.57680987      -0.14925659
H        0.06043002       1.19384373       0.86719215       0.04616807       0.02127070      -0.05067151      -0.54886834       0.77418629       0.01127514
H       -0.21504834       1.21708056      -0.92825738      -0.02248663      -0.28845300      -0.05493804       0.55387060      -0.23027721      -0.05748630
H        3.53753982       0.01274896      -0.01860466      -0.80833483       0.04700201      -0.05731455       0.07024001       0.09207580      -0.10659988
7
Lattice="13.0 0.0 0.0 0.0 9.0 0.0 0.0 0.0 9.0" Properties=species:S:1:pos:R:3:momenta:R:3:forces:R:3 EPS_SCF=1e-06 energy=-670.0174778519472 units=gap_units Integrated_spin_density=1.92365e-05 opt_dir=/home/tks32/dft_pbe/apr_8_opt_fragments_subset/singlepoint_5_CH3OH time=7.0 free_energy=-670.0174778519472 pbc="T T T"
C       -0.32457417       0.62593323      -0.00067632      -0.04233945       0.01869316       0.44237282       1.34955858       1.22896122       0.87078848
O        0.30085096      -0.60696409      -0.02605976       0.81485428       0.36009257      -0.80902528      -1.23538670      -2.19958970      -1.15411774
H       -1.37807176       0.52764468       0.15316761       0.49052446      -0.03664558       0.15399070      -1.21863835      -0.37214110       0.09641643
H        1.16268892      -0.75726160       0.36752303      -0.47155674      -0.15261112       0.47160435       0.94766465       0.41880846       0.39344721
H        0.06276507       1.19957884       0.86105247      -0.01409878       0.08236108      -0.09615703      -0.54021470       0.87538483       0.03901270
H       -0.21378334       1.18958345      -0.93509298       0.02950822      -0.29464013      -0.08961615       0.33491975       0.04699573      -0.15184298
H        3.45880773       0.01578643      -0.02497024      -0.80689199       0.02275002      -0.07316941       0.36209678       0.00158056      -0.09370410
7
Lattice="13.0 0.0 0.0 0.0 9.0 0.0 0.0 0.0 9.0" Properties=species:S:1:pos:R:3:momenta:R:3:forces:R:3 EPS_SCF=1e-06 energy=-669.8904427766738 units=gap_units Integrated_spin_density=1.92365e-05 opt_dir=/home/tks32/dft_pbe/apr_8_opt_fragments_subset/singlepoint_5_CH3OH time=8.0 free_energy=-669.8904427766738 pbc="T T T"
C       -0.32375846       0.62659733       0.00319821       0.21206286       0.10713370       0.48936341       2.50806108       1.19439908       0.56646539
O        0.30490738      -0.60496814      -0.03155156       0.60921709       0.29093217      -0.92877475      -1.44929201      -2.24442891      -1.41883438
H       -1.33765633       0.51791717       0.16905357       0.31079649      -0.13939221       0.14347273      -2.73549180      -0.39542731       0.28151967
H        1.12021905      -0.77183797       0.41696048      -0.40906827      -0.12137689       0.53110908       1.38271707       0.26066927       0.76442265
H        0.06007855       1.21033166       0.85382159      -0.06519827       0.15674865      -0.08242729      -0.44567724       0.93664890       0.09336567
H       -0.20893949       1.16204286      -0.94337166       0.05415633      -0.29733045      -0.05864098       0.06131274       0.31686819      -0.22495594
H        3.38460150       0.01728516      -0.03378568      -0.71196623       0.00328503      -0.09410219       0.67837017      -0.06872922      -0.06198306
7
Lattice="13.0 0.0 0.0 0.0 9.0 0.0 0.0 0.0 9.0" Properties=species:S:1:pos:R:3:momenta:R:3:forces:R:3 EPS_SCF=1e-06 energy=-669.8081903045136 units=gap_units Integrated_spin_density=1.92365e-05 opt_dir=/home/tks32/dft_pbe/apr_8_opt_fragments_subset/singlepoint_5_CH3OH time=9.0 free_energy=-669.8081903045136 pbc="T T T"
C       -0.32199371       0.62762531       0.00704640       0.25296756       0.13958671       0.50205644       2.80213158       1.07272115       0.39312570
O        0.30917704      -0.60384615      -0.03718882       0.69648803       0.07979719      -0.99682625      -1.05775927      -2.27189670      -1.37276847
H       -1.31896924       0.50407698       0.18497647       0.05966739      -0.13288842       0.20443077      -3.39498956      -0.35205006       0.37457447
H        1.08577351      -0.78200159       0.47248869      -0.29712038      -0.10076583       0.62230580       1.22817775       0.17955713       0.85955409
H        0.05192730       1.23023260       0.84540894      -0.08642346       0.25570079      -0.08442992      -0.29402128       0.90937968       0.12947721
H       -0.20714932       1.13517700      -0.95064144       0.02112068      -0.26838729      -0.10274659      -0.14880187       0.56234619      -0.35277543
H        3.31792475       0.01819656      -0.04593349      -0.64669982       0.02695685      -0.14479025       0.86526264      -0.10005738      -0.03118757
7
Lattice="13.0 0.0 0.0 0.0 9.0 0.0 0.0 0.0 9.0" Properties=species:S:1:pos:R:3:momenta:R:3:forces:R:3 EPS_SCF=1e-06 energy=-669.8476183281246 units=gap_units Integrated_spin_density=1.92365e-05 opt_dir=/home/tks32/dft_pbe/apr_8_opt_fragments_subset/singlepoint_5_CH3OH time=10.0 free_energy=-669.8476183281246 pbc="T T T"
C       -0.31876493       0.62890800       0.01068257       0.50167626       0.24066968       0.47538861       1.77010155       0.89548828       0.41943903
O        0.31334494      -0.60375078      -0.04328573       0.70939575      -0.11562789      -1.04656275      -0.11634876      -2.29149383      -0.80810805
H       -1.33036386       0.48964320       0.20775270      -0.27333333      -0.16629365       0.24585579      -2.62440417      -0.19181193       0.22801320
H        1.06080356      -0.79005439       0.53635540      -0.23330862      -0.07209215       0.68984926       0.46567897       0.25021516       0.46969892
H        0.04307072       1.26086296       0.83646592      -0.09795586       0.34438789      -0.11049968      -0.13015253       0.75259413       0.06975688
H       -0.20602057       1.10940125      -0.96203031      -0.01704502      -0.24621251      -0.14217714      -0.29447494       0.69245036      -0.36702426
H        3.25739094       0.01903066      -0.05880149      -0.58942918       0.01516864      -0.11185409       0.92959988      -0.10744217      -0.01177572
7
Lattice="13.0 0.0 0.0 0.0 9.0 0.0 0.0 0.0 9.0" Properties=species:S:1:pos:R:3:momenta:R:3:forces:R:3 EPS_SCF=1e-06 energy=-669.9056519536814 units=gap_units Integrated_spin_density=1.92365e-05 opt_dir=/home/tks32/dft_pbe/apr_8_opt_fragments_subset/singlepoint_5_CH3OH time=11.0 free_energy=-669.9056519536814 pbc="T T T"
C       -0.31431330       0.63141318       0.01509716       0.60285137       0.34793845       0.58773693      -0.18310067       0.59831716       0.43975745
O        0.31810556      -0.60558900      -0.05024410       0.83347414      -0.48915510      -1.14308433       1.00238783      -2.11515343       0.17089401
H       -1.36863277       0.47272049       0.23416137      -0.48512680      -0.17038673       0.25502229      -0.84475456       0.08881812      -0.13577667
H        1.03938052      -0.79479713       0.60675123      -0.22872360      -0.00823690       0.73076147      -0.50804224       0.38648683      -0.30413461
H        0.03428512       1.30036130       0.82575484      -0.07745366       0.45683699      -0.10568388       0.03970745       0.51075463      -0.02532092
H       -0.21243490       1.08911169      -0.97782480      -0.11030464      -0.16230264      -0.18404608      -0.37748246       0.64321026      -0.13510000
H        3.20367796       0.02081276      -0.07125983      -0.53471679       0.02530593      -0.14070640       0.87128464      -0.11243358      -0.01031927
7
Lattice="13.0 0.0 0.0 0.0 9.0 0.0 0.0 0.0 9.0" Properties=species:S:1:pos:R:3:momenta:R:3:forces:R:3 EPS_SCF=1e-06 energy=-669.8535086214774 units=gap_units Integrated_spin_density=1.92365e-05 opt_dir=/home/tks32/dft_pbe/apr_8_opt_fragments_subset/singlepoint_5_CH3OH time=12.0 free_energy=-669.8535086214774 pbc="T T T"
C       -0.31009460       0.63427731       0.02045499       0.43899777       0.41135516       0.66587927      -1.79484712       0.41884401       0.22808686
O        0.32328648      -0.60894643      -0.05702913       0.88247121      -0.60624440      -1.02806412       1.87224460      -1.71736983       1.20792460
H       -1.41722909       0.45796187       0.25427904      -0.47586332      -0.17809269       0.16915308       0.78901261       0.39181303      -0.43411845
H        1.01510279      -0.79235526       0.67346831      -0.27193557       0.04677747       0.63323934      -1.20691366       0.42838782      -1.10123169
H        0.03029680       1.34360381       0.81611298      -0.02355590       0.44664113      -0.11241946       0.06605443       0.14087235      -0.21791660
H       -0.22299391       1.07535306      -0.99670607      -0.12154998      -0.12038040      -0.19227285      -0.42946154       0.46814775       0.33909735
H        3.15859898       0.02280670      -0.08572162      -0.42856421      -0.00005626      -0.13551528       0.70391069      -0.13069512      -0.02184206
7
Lattice="13.0 0.0 0.0 0.0 9.0 0.0 0.0 0.0 9.0" Properties=species:S:1:pos:R:3:momenta:R:3:forces:R:3 EPS_SCF=1e-06 energy=-669.7390438111702 units=gap_units Integrated_spin_density=1.92365e-05 opt_dir=/home/tks32/dft_pbe/apr_8_opt_fragments_subset/singlepoint_5_CH3OH time=13.0 free_energy=-669.7390438111702 pbc="T T T"
C       -0.30773907       0.63679361       0.02602089       0.19684743       0.31005074       0.66662135      -2.63286539       0.35881871      -0.13525280
O        0.32971867      -0.61257217      -0.06301500       1.16041015      -0.63043898      -0.89252241       2.29613791      -1.18473980       1.95399981
H       -1.45725777       0.44353961       0.26794444      -0.34244839      -0.09906631       0.11817694       1.70785089       0.61275932      -0.52732139
H        0.98283514      -0.78474029       0.72752466      -0.40741426       0.09857663       0.48865377      -1.45078010       0.33403749      -1.60055865
H        0.02779186       1.38685362       0.80357107      -0.03199652       0.42220389      -0.14761872      -0.00153752      -0.26598196      -0.38720819
H       -0.23762685       1.06727239      -1.01120148      -0.17035460      -0.07747591      -0.08828635      -0.43258547       0.30384823       0.73511043
H        3.11787358       0.02200934      -0.09771965      -0.40504381      -0.02385005      -0.14502458       0.51377969      -0.15874199      -0.03876921
7
Lattice="13.0 0.0 0.0 0.0 9.0 0.0 0.0 0.0 9.0" Properties=species:S:1:pos:R:3:momenta:R:3:forces:R:3 EPS_SCF=1e-06 energy=-669.6718223839542 units=gap_units Integrated_spin_density=1.92365e-05 opt_dir=/home/tks32/dft_pbe/apr_8_opt_fragments_subset/singlepoint_5_CH3OH time=14.0 free_energy=-669.6718223839542 pbc="T T T"
C       -0.30704653       0.63983656       0.03129248      -0.04373887       0.40425845       0.56455235      -3.03870525       0.29676392      -0.45897518
O        0.33748100      -0.61695914      -0.06755375       1.36344366      -0.71509357      -0.60889615       2.30754737      -0.57918891       2.31555888
H       -1.48171932       0.43778889       0.27846393      -0.14370136      -0.02876661       0.09738068       2.09824994       0.67818748      -0.52139812
H        0.93779584      -0.77499500       0.76637892      -0.50370859       0.08554534       0.31256217      -1.32915423       0.14203844      -1.72044585
H        0.02411846       1.42748370       0.78172738      -0.05679540       0.39106974      -0.25552787       0.01045671      -0.56124245      -0.38497600
H       -0.25555081       1.06103691      -1.01505445      -0.20989248      -0.05329449       0.02862674      -0.39119062       0.21436473       0.82841439
H        3.07751591       0.01699148      -0.11217215      -0.40560696      -0.08371887      -0.13869793       0.34279607      -0.19092321      -0.05817813
7
Lattice="13.0 0.0 0.0 0.0 9.0 0.0 0.0 0.0 9.0" Properties=species:S:1:pos:R:3:momenta:R:3:forces:R:3 EPS_SCF=1e-06 energy=-669.691081323624 units=gap_units Integrated_spin_density=1.92365e-05 opt_dir=/home/tks32/dft_pbe/apr_8_opt_fragments_subset/singlepoint_5_CH3OH time=15.0 free_energy=-669.691081323624 pbc="T T T"
C       -0.30819383       0.64333867       0.03562049      -0.27182460       0.42681446       0.54816654      -3.25847126       0.24817950      -0.58311521
O        0.34628046      -0.62195377      -0.07059080       1.49731807      -0.81646626      -0.44068703       2.00502931       0.04236304       2.23418891
H       -1.48712066       0.44103757       0.28431719       0.06078057       0.06391883       0.03492908       2.19464158       0.62170606      -0.45126244
H        0.88298223      -0.76461234       0.79012168      -0.61128966       0.12496229       0.17247520      -0.93751649      -0.12085291      -1.43611739
H        0.01975312       1.46305451       0.75409498      -0.04710026       0.30241912      -0.27294023       0.09122782      -0.75898406      -0.27120188
H       -0.27892710       1.05845744      -1.00665339      -0.25533303       0.00301973       0.11413787      -0.29127423       0.18860478       0.58180800
H        3.03947802       0.00791363      -0.12590381      -0.37255110      -0.10466817      -0.15608142       0.19636327      -0.22101641      -0.07429998
7
Lattice="13.0 0.0 0.0 0.0 9.0 0.0 0.0 0.0 9.0" Properties=species:S:1:pos:R:3:momenta:R:3:forces:R:3 EPS_SCF=1e-06 energy=-669.7689927135303 units=gap_units Integrated_spin_density=1.92365e-05 opt_dir=/home/tks32/dft_pbe/apr_8_opt_fragments_subset/singlepoint_5_CH3OH time=16.0 free_energy=-669.7689927135303 pbc="T T T"
C       -0.31199930       0.64735592       0.03912933      -0.64293100       0.60407243       0.34962047      -3.20627165       0.24252351      -0.54780028
O        0.35586273      -0.62727228      -0.07238140       1.65396469      -0.95923448      -0.19281203       1.45145631       0.64852220       1.61374550
H       -1.46975029       0.44876107       0.28694387       0.28270829       0.10997206       0.01595677       1.96858800       0.50032671      -0.31682822
H        0.82128360      -0.75461433       0.80113160      -0.65987583       0.09582123       0.09074315      -0.30831468      -0.46239481      -0.65268286
H        0.01890753       1.49145087       0.72719083      -0.01622206       0.25609476      -0.29490036       0.17905251      -0.89817764      -0.15639607
H       -0.30531154       1.05843673      -0.99220516      -0.26718414      -0.00054381       0.18363705      -0.16281238       0.21346838       0.14620345
H        3.00429112      -0.00163638      -0.14047424      -0.35045996      -0.10618218      -0.15224506       0.07830190      -0.24426835      -0.08624152
7
Lattice="13.0 0.0 0.0 0.0 9.0 0.0 0.0 0.0 9.0" Properties=species:S:1:pos:R:3:momenta:R:3:forces:R:3 EPS_SCF=1e-06 energy=-669.8323180627381 units=gap_units Integrated_spin_density=1.92365e-05 opt_dir=/home/tks32/dft_pbe/apr_8_opt_fragments_subset/singlepoint_5_CH3OH time=17.0 free_energy=-669.8323180627381 pbc="T T T"
C       -0.31821940       0.65188923       0.04149666      -0.86633164       0.44082086       0.20711645      -2.61914384       0.26922331      -0.33852551
O        0.36621613      -0.63259791      -0.07325572       1.70609893      -0.71529772      -0.07348307       0.87017939       1.19934764       0.69113959
H       -1.43275946       0.46018309       0.28843585       0.45204519       0.13747284       0.01278287       1.25200130       0.28723463      -0.09397531
H        0.75666327      -0.74800835       0.80683039      -0.62168454       0.03320657       0.04614083       0.35766098      -0.83757931       0.42213865
H        0.01684277       1.51667919       0.70143639      -0.02599644       0.24796738      -0.24143132       0.27020692      -1.00788585      -0.06910257
H       -0.33046802       1.05750824      -0.97279508      -0.24989408      -0.00941608       0.20155994      -0.04597527       0.34704124      -0.52344169
H        2.96892921      -0.01345307      -0.15565170      -0.39423742      -0.13475385      -0.15268570      -0.08492948      -0.25738166      -0.08823316
7
Lattice="13.0 0.0 0.0 0.0 9.0 0.0 0.0 0.0 9.0" Properties=species:S:1:pos:R:3:momenta:R:3:forces:R:3 EPS_SCF=1e-06 energy=-669.8291433046941 units=gap_units Integrated_spin_density=1.92365e-05 opt_dir=/home/tks32/dft_pbe/apr_8_opt_fragments_subset/singlepoint_5_CH3OH time=18.0 free_energy=-669.8291433046941 pbc="T T T"
C       -0.32610870       0.65635928       0.04378053      -1.04207487       0.57076805       0.30225287      -1.22706436       0.30715154      -0.20405043
O        0.37687835      -0.63704103      -0.07427126       1.67799774      -0.67452003      -0.17310104       0.52009387       1.63748110      -0.01826574
H       -1.38750449       0.47240927       0.28707279       0.48569744       0.13672053      -0.00280537      -0.17633144       0.00845742       0.23755255
H        0.69679406      -0.75085324       0.81403360      -0.55795738      -0.09562807       0.13084507       0.74246106      -1.12252653       1.23591435
H        0.01674381       1.53457002       0.67994883       0.02793776       0.14019052      -0.26373563       0.32522868      -1.05766942      -0.01972189
H       -0.35371475       1.05910820      -0.95332906      -0.22293763       0.03228830       0.16554388      -0.00617556       0.50293235      -1.13779557
H        2.93166428      -0.02506744      -0.17056552      -0.36866306      -0.10981929      -0.15899979      -0.17821226      -0.27582645      -0.09363327
7
Lattice="13.0 0.0 0.0 0.0 9.0 0.0 0.0 0.0 9.0" Properties=species:S:1:pos:R:3:momenta:R:3:forces:R:3 EPS_SCF=1e-06 energy=-669.7837949344339 units=gap_units Integrated_spin_density=1.92365e-05 opt_dir=/home/tks32/dft_pbe/apr_8_opt_fragments_subset/singlepoint_5_CH3OH time=19.0 free_energy=-669.7837949344339 pbc="T T T"
C       -0.33432886       0.66104217       0.04580984      -0.95834459       0.51117853       0.21922053       0.67918126       0.27379952      -0.46588836
O        0.38708569      -0.64053416      -0.07516672       1.69563966      -0.39312816      -0.12212649       0.50261207       1.92072442       0.07413320
H       -1.34464476       0.48604233       0.28925100       0.37023405       0.15136498       0.06036643      -1.98534183      -0.31672374       0.65511605
H        0.64707638      -0.76646036       0.83204189      -0.50067715      -0.20762423       0.23142793       0.68703471      -1.17524858       1.15113146
H        0.02077274       1.54352047       0.65554639       0.05857742       0.03186138      -0.24907243       0.38452258      -0.94778357       0.08465745
H       -0.37579486       1.06474379      -0.94198421      -0.22707099       0.06367504       0.04466482      -0.01213891       0.54521056      -1.40389919
H        2.89251112      -0.03803631      -0.18766215      -0.43835840      -0.15732754      -0.18448079      -0.25586989      -0.29997860      -0.09525061
7
Lattice="13.0 0.0 0.0 0.0 9.0 0.0 0.0 0.0 9.0" Properties=species:S:1:pos:R:3:momenta:R:3:forces:R:3 EPS_SCF=1e-06 energy=-669.7633515691728 units=gap_units Integrated_spin_density=1.92365e-05 opt_dir=/home/tks32/dft_pbe/apr_8_opt_fragments_subset/singlepoint_5_CH3OH time=20.0 free_energy=-669.7633515691728 pbc="T T T"
C       -0.34173452       0.66522298       0.04777100      -0.84496285       0.44868463       0.31246629       2.05097232       0.19338203      -1.10892058
O        0.39774672      -0.64239234      -0.07617998       1.73957303      -0.15782599      -0.24752712       0.58504176       2.06057325       0.79722583
H       -1.32090645       0.49832678       0.29863963       0.11398426       0.10914751       0.14028638      -3.19465554      -0.55702716       1.02424258
H        0.59849032      -0.79166423       0.85869727      -0.46444676      -0.31464001       0.30840429       0.46045231      -1.02985574       0.36448528
H        0.03210941       1.54441084       0.63040925       0.15136123      -0.00529192      -0.24886180       0.43312199      -0.74463542       0.22606034
H       -0.39866101       1.07394086      -0.94284655      -0.23218431       0.12557525      -0.07191341       0.03282491       0.40475160      -1.21815164
H        2.84791970      -0.05552822      -0.20499289      -0.46332459      -0.20564946      -0.19285463      -0.36775775      -0.32718857      -0.08494182
7