7
Lattice="13.0 0.0 0.0 0.0 9.0 0.0 0.0 0.0 9.0" Properties=species:S:1:pos:R:3:momenta:R:3:forces:R:3 EPS_SCF=1e-06 energy=-670.0687876864224 units=gap_units Integrated_spin_density=1.92365e-05 opt_dir=/home/tks32/dft_pbe/apr_8_opt_fragments_subset/singlepoint_5_CH3OH time=0.0 free_energy=-670.0687876864224 pbc="T T T"
C       -0.33762341       0.65338693       0.00417583       5.45576389      -0.78295391      -0.42330267      -0.12734795      -0.05430427      -0.00006388
O        0.27479972      -0.64470667      -0.00284957       6.08037964       1.18098515      -0.51859695      -0.37016440       0.17051029       0.01590349
H       -1.42149596       0.48711609       0.02861434      -0.04505419       0.01870235       0.27550326      -0.14037653       0.17003808       0.00340453
H        1.23729830      -0.51770440      -0.02443247       0.87220168      -0.41663278       0.71450882       0.59833135      -0.25716188      -0.03308861
H       -0.05766019       1.24329332       0.89244357       0.63788730      -0.13487010      -0.04519662       0.07899639      -0.06650139       0.08263577
H       -0.09675922       1.23454865      -0.90115489       0.06259361       0.13476928      -0.00291584       0.06889960      -0.07351054      -0.07606432
H        4.00000000       0.00000000       0.00000000      -0.36793659       0.00000000       0.00000000      -0.10833847       0.11092971       0.00727303
7
Lattice="13.0 0.0 0.0 0.0 9.0 0.0 0.0 0.0 9.0" Properties=species:S:1:pos:R:3:momenta:R:3:forces:R:3 EPS_SCF=1e-06 energy=-670.0763445089256 units=gap_units Integrated_spin_density=1.92365e-05 opt_dir=/home/tks32/dft_pbe/apr_8_opt_fragments_subset/singlepoint_5_CH3OH time=0.25 free_energy=-670.0763445089256 pbc="T T T"
C       -0.33597988       0.65184990       0.00339191       0.76468847      -0.75732176      -0.38363425      -0.44261056      -0.04880959       0.06433271
O        0.27476473      -0.64297888      -0.00364718       0.02878635       1.11062706      -0.49442772       0.03262131       0.13237016      -0.03392226
H       -1.43187064       0.48818914       0.03485399      -0.42573874       0.05625376       0.25060487       0.25216728       0.20707878      -0.01128681
H        1.24922445      -0.52799787      -0.00712792       0.48077834      -0.43278123       0.71201514       0.10331924      -0.26118963      -0.01783180
H       -0.05164568       1.24002104       0.89158138       0.24449136      -0.11868176      -0.03139911       0.07396243      -0.05198295       0.07930824
H       -0.10502270       1.23804904      -0.90162451      -0.34644976       0.14815849      -0.03385732       0.10103820      -0.11082164      -0.08402216
H        3.98166916      -0.00011661      -0.00021183      -0.74655602      -0.00625455      -0.01930161      -0.12049790       0.13335486       0.00342208
7
Lattice="13.0 0.0 0.0 0.0 9.0 0.0 0.0 0.0 9.0" Properties=species:S:1:pos:R:3:momenta:R:3:forces:R:3 EPS_SCF=1e-06 energy=-670.0737409724965 units=gap_units Integrated_spin_density=1.92365e-05 opt_dir=/home/tks32/dft_pbe/apr_8_opt_fragments_subset/singlepoint_5_CH3OH time=0.5 free_energy=-670.0737409724965 pbc="T T T"
C       -0.33452058       0.65030719       0.00263796       0.68409004      -0.76292828      -0.35557916      -0.72049899      -0.02578012       0.12427639
O        0.27490177      -0.64128941      -0.00444748       0.10960132       1.10586321      -0.55714967       0.42025010       0.08661356      -0.06711200
H       -1.44235669       0.49007622       0.04144440      -0.43114204       0.09036433       0.29156858       0.61342011       0.23263556      -0.03075907
H        1.26083367      -0.53834277       0.01024046       0.47374589      -0.42383758       0.71509162      -0.37343484      -0.25153967      -0.02095866
H       -0.04598080       1.23710688       0.89070903       0.23491926      -0.11947127      -0.04348115       0.07113282      -0.03967191       0.07151335
H       -0.11321949       1.24126625      -0.90257982      -0.33237418       0.13320623      -0.02963641       0.13129990      -0.15733778      -0.07682038
H        3.96351435      -0.00039471      -0.00065674      -0.73884029      -0.02319664      -0.02081380      -0.14216910       0.15508036      -0.00013963
7
Lattice="13.0 0.0 0.0 0.0 9.0 0.0 0.0 0.0 9.0" Properties=species:S:1:pos:R:3:momenta:R:3:forces:R:3 EPS_SCF=1e-06 energy=-670.0619202280672 units=gap_units Integrated_spin_density=1.92365e-05 opt_dir=/home/tks32/dft_pbe/apr_8_opt_fragments_subset/singlepoint_5_CH3OH time=0.75 free_energy=-670.0619202280672 pbc="T T T"
C       -0.33315279       0.64866549       0.00194143       0.67309588      -0.80701427      -0.31283509      -0.96180211       0.00809199       0.19108506
O        0.27509283      -0.63953531      -0.00533386       0.14129841       1.16525133      -0.60392859       0.80329414       0.02619786      -0.08666335
H       -1.45248059       0.49248016       0.04859281      -0.40234752       0.11087579       0.30058169       0.93330941       0.24816405      -0.05510384
H        1.27211716      -0.54862655       0.02786894       0.44506430      -0.43296281       0.72603460      -0.83396963      -0.23242071      -0.04136587
H       -0.04022446       1.23404344       0.88965931       0.23451220      -0.13076754      -0.04862754       0.07115137      -0.02285207       0.07013078
H       -0.12118340       1.24433524      -0.90311941      -0.33049197       0.10454244      -0.02001077       0.16179852      -0.20316564      -0.07484611
H        3.94523163      -0.00079947      -0.00147590      -0.76113130      -0.00992495      -0.04121429      -0.17378170       0.17598452      -0.00323668
7
Lattice="13.0 0.0 0.0 0.0 9.0 0.0 0.0 0.0 9.0" Properties=species:S:1:pos:R:3:momenta:R:3:forces:R:3 EPS_SCF=1e-06 energy=-670.0423625263446 units=gap_units Integrated_spin_density=1.92365e-05 opt_dir=/home/tks32/dft_pbe/apr_8_opt_fragments_subset/singlepoint_5_CH3OH time=1.0 free_energy=-670.0423625263446 pbc="T T T"
C       -0.33183471       0.64704107       0.00131177       0.60541121      -0.74998533      -0.29786063      -1.16895704       0.04965002       0.25425372
O        0.27534451      -0.63779653      -0.00626590       0.17932296       1.08621745      -0.58428125       1.16248378      -0.04453088      -0.09334345
H       -1.46205534       0.49506469       0.05577850      -0.37059482       0.11145640       0.28244096       1.21037740       0.25414935      -0.08043303
H        1.28291385      -0.55920492       0.04547417       0.42679671      -0.45185919       0.71915281      -1.25952584      -0.20191175      -0.07710776
H       -0.03474214       1.23100526       0.88860161       0.22061079      -0.12014507      -0.04133542       0.07569801      -0.00256622       0.07133197
H       -0.12924345       1.24719832      -0.90374111      -0.31490715       0.11583132      -0.04430264       0.19507674      -0.25054890      -0.06905611
H        3.92688696      -0.00087251      -0.00229139      -0.74663970       0.00848441      -0.03381383      -0.21515305       0.19575838      -0.00564535
7
Lattice="13.0 0.0 0.0 0.0 9.0 0.0 0.0 0.0 9.0" Properties=species:S:1:pos:R:3:momenta:R:3:forces:R:3 EPS_SCF=1e-06 energy=-670.0165209697583 units=gap_units Integrated_spin_density=1.92365e-05 opt_dir=/home/tks32/dft_pbe/apr_8_opt_fragments_subset/singlepoint_5_CH3OH time=1.25 free_energy=-670.0165209697583 pbc="T T T"
C       -0.33062486       0.64548086       0.00065083       0.56967369      -0.76407564      -0.35152740      -1.33487896       0.11146942       0.30632153
O        0.27563860      -0.63611447      -0.00706946       0.19093056       1.08786068      -0.48135557       1.48448206      -0.12273941      -0.08910784
H       -1.47121856       0.49771191       0.06230415      -0.35626543       0.09158324       0.25262560       1.45159725       0.25378833      -0.10330008
H        1.29313842      -0.57027504       0.06288457       0.39997433      -0.44646930       0.72374420      -1.64009994      -0.15873435      -0.12481060
H       -0.02932831       1.22845461       0.88772000       0.23199077      -0.08396899      -0.03711536       0.07691975       0.01120686       0.06025613
H       -0.13685721       1.24993570      -0.90512553      -0.30355262       0.10546054      -0.06293698       0.22652182      -0.30897771      -0.04203005
H        3.90894158      -0.00074300      -0.00333166      -0.73275131       0.00960948      -0.04343449      -0.26454198       0.21398685      -0.00732908
7
Lattice="13.0 0.0 0.0 0.0 9.0 0.0 0.0 0.0 9.0" Properties=species:S:1:pos:R:3:momenta:R:3:forces:R:3 EPS_SCF=1e-06 energy=-669.9866847844924 units=gap_units Integrated_spin_density=1.92365e-05 opt_dir=/home/tks32/dft_pbe/apr_8_opt_fragments_subset/singlepoint_5_CH3OH time=1.5 free_energy=-669.9866847844924 pbc="T T T"
C       -0.32953381       0.64406708      -0.00011633       0.49596390      -0.64097441      -0.35475756      -1.46582587       0.17210975       0.36112327
O        0.27597747      -0.63448972      -0.00775254       0.24553878       1.05832119      -0.45674460       1.76540835      -0.20652039      -0.07881822
H       -1.47968078       0.49968396       0.06847678      -0.31574957       0.06546389       0.26031809       1.65600832       0.25459877      -0.12428183
H        1.30238943      -0.58103397       0.08035588       0.35784724      -0.43682435       0.70252557      -1.96411586      -0.11110411      -0.18135735
H       -0.02346653       1.22583102       0.88692696       0.24491572      -0.13059856      -0.02970256       0.07148158       0.02668452       0.04231962
H       -0.14408022       1.25231909      -0.90686070      -0.29202582       0.08697863      -0.07375455       0.25615564      -0.36592276      -0.01053367
H        3.89113479      -0.00065780      -0.00446424      -0.73649025      -0.00236639      -0.04788438      -0.31911215       0.23015422      -0.00845181
7
Lattice="13.0 0.0 0.0 0.0 9.0 0.0 0.0 0.0 9.0" Properties=species:S:1:pos:R:3:momenta:R:3:forces:R:3 EPS_SCF=1e-06 energy=-669.95612302009 units=gap_units Integrated_spin_density=1.92365e-05 opt_dir=/home/tks32/dft_pbe/apr_8_opt_fragments_subset/singlepoint_5_CH3OH time=1.75 free_energy=-669.95612302009 pbc="T T T"
C       -0.32853708       0.64272615      -0.00081720       0.44952478      -0.63798181      -0.32844335      -1.56555649       0.22574556       0.41375149
O        0.27639774      -0.63280121      -0.00847680       0.32788039       1.11299260      -0.47388845       2.00145757      -0.30307118      -0.06515796
H       -1.48695894       0.50137625       0.07457070      -0.29610634       0.06271467       0.23933807       1.81537228       0.25114247      -0.14348330
H        1.31050991      -0.59180773       0.09750730       0.29944938      -0.45117385       0.69537419      -2.22827176      -0.05844653      -0.24319151
H       -0.01766789       1.22250460       0.88637704       0.24038957      -0.14136066      -0.02322910       0.06618882       0.05412657       0.02755090
H       -0.15128372       1.25402529      -0.90869694      -0.28740643       0.05578190      -0.07457944       0.28761931      -0.41319440       0.01968363
H        3.87315003      -0.00077815      -0.00547662      -0.73373136      -0.00097285      -0.03457192      -0.37680973       0.24369752      -0.00915326
7
Lattice="13.0 0.0 0.0 0.0 9.0 0.0 0.0 0.0 9.0" Properties=species:S:1:pos:R:3:momenta:R:3:forces:R:3 EPS_SCF=1e-06 energy=-669.926428165459 units=gap_units Integrated_spin_density=1.92365e-05 opt_dir=/home/tks32/dft_pbe/apr_8_opt_fragments_subset/singlepoint_5_CH3OH time=2.0 free_energy=-669.926428165459 pbc="T T T"
C       -0.32769686       0.64141334      -0.00149499       0.40784524      -0.66489645      -0.35241116      -1.64099982       0.27523659       0.46399183
O        0.27693868      -0.63109036      -0.00918155       0.36970388       1.11225934      -0.44399823       2.18965154      -0.40889963      -0.04987043
H       -1.49338551       0.50294317       0.08034909      -0.23792528       0.06958833       0.22582726       1.94182664       0.24376188      -0.15988214
H        1.31739962      -0.60266600       0.11436725       0.25243030      -0.43434371       0.68875403      -2.43423291      -0.00096747      -0.30709959
H       -0.01189448       1.21903904       0.88559039       0.22646736      -0.14271661      -0.03543513       0.05866101       0.08892290       0.02005654
H       -0.15827220       1.25523200      -0.91037865      -0.28655100       0.04142862      -0.05436858       0.31956868      -0.45221119       0.04255273
H        3.85530435      -0.00073962      -0.00638447      -0.73197050       0.01868047      -0.02836819      -0.43447513       0.25415692      -0.00974894
7
Lattice="13.0 0.0 0.0 0.0 9.0 0.0 0.0 0.0 9.0" Properties=species:S:1:pos:R:3:momenta:R:3:forces:R:3 EPS_SCF=1e-06 energy=-669.9000021326543 units=gap_units Integrated_spin_density=1.92365e-05 opt_dir=/home/tks32/dft_pbe/apr_8_opt_fragments_subset/singlepoint_5_CH3OH time=2.25 free_energy=-669.9000021326543 pbc="T T T"
C       -0.32693253       0.64007540      -0.00224769       0.34334033      -0.65924052      -0.38715050      -1.69406833       0.32853413       0.53307901
O        0.27755400      -0.62938831      -0.00985125       0.45581721       1.10919661      -0.41519573       2.33432468      -0.52137380      -0.03508141
H       -1.49860820       0.50469801       0.08613411      -0.18794671       0.07056880       0.23681377       2.03371165       0.22980025      -0.17573328
H        1.32286822      -0.61327394       0.13100658       0.17336144      -0.43388515       0.67397473      -2.58589581       0.05763638      -0.37109023
H       -0.00629064       1.21569268       0.88491213       0.23275722      -0.12064571      -0.01213733       0.04717049       0.12363985       0.00795218
H       -0.16517838       1.25588244      -0.91174602      -0.28520786       0.00342280      -0.06287694       0.35416649      -0.47942034       0.05138587
H        3.83748706      -0.00026319      -0.00716489      -0.73212163       0.03058317      -0.03342800      -0.48940917       0.26118353      -0.01051214
7
Lattice="13.0 0.0 0.0 0.0 9.0 0.0 0.0 0.0 9.0" Properties=species:S:1:pos:R:3:momenta:R:3:forces:R:3 EPS_SCF=1e-06 energy=-669.8797458018987 units=gap_units Integrated_spin_density=1.92365e-05 opt_dir=/home/tks32/dft_pbe/apr_8_opt_fragments_subset/singlepoint_5_CH3OH time=2.5 free_energy=-669.8797458018987 pbc="T T T"
C       -0.32618023       0.63872991      -0.00302437       0.35731963      -0.66600106      -0.35189453      -1.72959089       0.39072456       0.61524556
O        0.27825821      -0.62772138      -0.01048530       0.47536323       1.07867920      -0.40631911       2.42243624      -0.63867459      -0.02336576
H       -1.50279210       0.50642999       0.09178186      -0.14286916       0.06318964       0.22419108       2.10127990       0.21285549      -0.19006880
H        1.32618330      -0.62350090       0.14736206       0.09858820      -0.42085817       0.66514880      -2.67170192       0.11604050      -0.43093503
H       -0.00072616       1.21283513       0.88435936       0.23135205      -0.10579981      -0.03868071       0.02785229       0.15369373      -0.01295456
H       -0.17191108       1.25605253      -0.91302556      -0.26769221       0.01005642      -0.06034769       0.38918697      -0.49954696       0.05388501
H        3.81938254       0.00049431      -0.00801737      -0.75206174       0.04073378      -0.03209784      -0.53946259       0.26490726      -0.01180642
7
Lattice="13.0 0.0 0.0 0.0 9.0 0.0 0.0 0.0 9.0" Properties=species:S:1:pos:R:3:momenta:R:3:forces:R:3 EPS_SCF=1e-06 energy=-669.8669428309399 units=gap_units Integrated_spin_density=1.92365e-05 opt_dir=/home/tks32/dft_pbe/apr_8_opt_fragments_subset/singlepoint_5_CH3OH time=2.75 free_energy=-669.8669428309399 pbc="T T T"
C       -0.32549464       0.63742129      -0.00368613       0.29971336      -0.62823369      -0.26857169      -1.74175740       0.46076270       0.67133217
O        0.27902443      -0.62607050      -0.01111484       0.56657303       1.07058544      -0.44233089       2.46679794      -0.76407890      -0.01578318
H       -1.50551246       0.50802854       0.09705260      -0.08268818       0.05920652       0.20879391       2.14156693       0.19443787      -0.20110586
H        1.32758756      -0.63380566       0.16317415       0.01053165      -0.41684250       0.64288099      -2.70669071       0.17572843      -0.48567486
H        0.00502305       1.20994824       0.88346464       0.23195839      -0.12729024      -0.03245200       0.00270674       0.19254828      -0.02415903
H       -0.17806922       1.25617453      -0.91465847      -0.24256929       0.00528828      -0.07017487       0.42025647      -0.52434102       0.06967401
H        3.80077689       0.00135554      -0.00869514      -0.78351897       0.03728619      -0.03814544      -0.58287996       0.26494264      -0.01428325
7
Lattice="13.0 0.0 0.0 0.0 9.0 0.0 0.0 0.0 9.0" Properties=species:S:1:pos:R:3:momenta:R:3:forces:R:3 EPS_SCF=1e-06 energy=-669.8634274004843 units=gap_units Integrated_spin_density=1.92365e-05 opt_dir=/home/tks32/dft_pbe/apr_8_opt_fragments_subset/singlepoint_5_CH3OH time=3.0 free_energy=-669.8634274004843 pbc="T T T"
C       -0.32493834       0.63605689      -0.00420961       0.24206383      -0.66818567      -0.23142061      -1.73376804       0.54086872       0.71512896
O        0.27995139      -0.62437071      -0.01175917       0.63544674       1.10736623      -0.40817199       2.46118348      -0.90004006      -0.01518832
H       -1.50671742       0.50972804       0.10193173      -0.01826064       0.07331815       0.18538303       2.15571171       0.17102914      -0.20894337
H        1.32676508      -0.64411828       0.17834707      -0.06159485      -0.41842329       0.60761589      -2.68779689       0.23758222      -0.53202732
H        0.01059179       1.20707781       0.88240854       0.23756117      -0.11314631      -0.05205079      -0.02843754       0.23700937      -0.02803200
H       -0.18376919       1.25612265      -0.91616114      -0.23199520      -0.00887299      -0.06046480       0.45033275      -0.54749018       0.08728579
H        3.78159422       0.00216965      -0.00972390      -0.80322104       0.02794387      -0.04089073      -0.61722546       0.26104079      -0.01822374
7
Lattice="13.0 0.0 0.0 0.0 9.0 0.0 0.0 0.0 9.0" Properties=species:S:1:pos:R:3:momenta:R:3:forces:R:3 EPS_SCF=1e-06 energy=-669.8681437088208 units=gap_units Integrated_spin_density=1.92365e-05 opt_dir=/home/tks32/dft_pbe/apr_8_opt_fragments_subset/singlepoint_5_CH3OH time=3.25 free_energy=-669.8681437088208 pbc="T T T"
C       -0.32454577       0.63468668      -0.00464817       0.16597818      -0.64353936      -0.16395533      -1.69916470       0.63631563       0.75665290
O        0.28101724      -0.62273770      -0.01238966       0.72724246       1.02187136      -0.44952949       2.42112374      -1.03452978      -0.01985303
H       -1.50632031       0.51186157       0.10619533       0.03753928       0.10423631       0.16932155       2.14364828       0.14055984      -0.21005683
H        1.32436084      -0.65396063       0.19278786      -0.14400669      -0.39936805       0.58332886      -2.63415860       0.29705536      -0.57083684
H        0.01643261       1.20489748       0.88124411       0.24814448      -0.08595729      -0.04564785      -0.07231276       0.27670198      -0.03672023
H       -0.18921429       1.25587822      -0.91762935      -0.20722077      -0.02467949      -0.06737924       0.48143267      -0.56924808       0.10470675
H        3.76161051       0.00271097      -0.01056282      -0.82767693       0.02743652      -0.02613851      -0.64056864       0.25314505      -0.02389272
7
Lattice="13.0 0.0 0.0 0.0 9.0 0.0 0.0 0.0 9.0" Properties=species:S:1:pos:R:3:momenta:R:3:forces:R:3 EPS_SCF=1e-06 energy=-669.87995065313 units=gap_units Integrated_spin_density=1.92365e-05 opt_dir=/home/tks32/dft_pbe/apr_8_opt_fragments_subset/singlepoint_5_CH3OH time=3.5 free_energy=-669.87995065313 pbc="T T T"
C       -0.32419966       0.63343194      -0.00497906       0.20181862      -0.60407575      -0.15396546      -1.64794834       0.73480869       0.79689180
O        0.28211704      -0.62124416      -0.01309315       0.69808073       0.97453135      -0.47055257       2.34367071      -1.16551939      -0.03133253
H       -1.50464916       0.51435492       0.11054917       0.10274123       0.09381339       0.17708797       2.11300947       0.10685537      -0.21090013
H        1.32014417      -0.66337724       0.20650704      -0.22094883      -0.37573053       0.55266767      -2.54499702       0.35367475      -0.60028489
H        0.02230272       1.20296381       0.88017351       0.24604810      -0.07427060      -0.03855168      -0.12384169       0.31675547      -0.04643127
H       -0.19405730       1.25538636      -0.91908666      -0.18608192      -0.02851719      -0.05738816       0.50992165      -0.58805100       0.12349787
H        3.74154890       0.00330533      -0.01099935      -0.84165793       0.01424932      -0.00929777      -0.64981477       0.24147612      -0.03144085
7
Lattice="13.0 0.0 0.0 0.0 9.0 0.0 0.0 0.0 9.0" Properties=species:S:1:pos:R:3:momenta:R:3:forces:R:3 EPS_SCF=1e-06 energy=-669.898458684925 units=gap_units Integrated_spin_density=1.92365e-05 opt_dir=/home/tks32/dft_pbe/apr_8_opt_fragments_subset/singlepoint_5_CH3OH time=3.75 free_energy=-669.898458684925 pbc="T T T"
C       -0.32379463       0.63221467      -0.00520503       0.18782417      -0.60729318      -0.09797473      -1.58181768       0.83770926       0.83572092
O        0.28316951      -0.61977922      -0.01383070       0.67330075       0.97163220      -0.49102994       2.23286370      -1.30084321      -0.04867214
H       -1.50132171       0.51650161       0.11455802       0.16834834       0.08025063       0.14844933       2.05857417       0.07467096      -0.20798141
H        1.31430989      -0.67216514       0.21981720      -0.25706058      -0.34774518       0.54099670      -2.42603454       0.40407865      -0.62098944
H        0.02832716       1.20136033       0.87919295       0.23847502      -0.06712778      -0.03180501      -0.18193208       0.35584074      -0.05946373
H       -0.19830916       1.25444203      -0.92054593      -0.15781845      -0.05049428      -0.05343142       0.53666097      -0.60075122       0.14135694
H        3.72075204       0.00374742      -0.01147966      -0.85306925       0.02077760      -0.01520493      -0.63831455       0.22929481      -0.03997114
7
Lattice="13.0 0.0 0.0 0.0 9.0 0.0 0.0 0.0 9.0" Properties=species:S:1:pos:R:3:momenta:R:3:forces:R:3 EPS_SCF=1e-06 energy=-669.9214192362601 units=gap_units Integrated_spin_density=1.92365e-05 opt_dir=/home/tks32/dft_pbe/apr_8_opt_fragments_subset/singlepoint_5_CH3OH time=4.0 free_energy=-669.9214192362601 pbc="T T T"
C       -0.32348832       0.63108645      -0.00538038       0.09695241      -0.46829551      -0.05211312      -1.49988412       0.93600013       0.87179218
O        0.28428494      -0.61834977      -0.01456622       0.79128003       0.88555330      -0.50905168       2.06219386      -1.44101877      -0.07527736
H       -1.49665979       0.51849242       0.11805432       0.21668213       0.08299046       0.13480893       1.98089256       0.04138260      -0.20245465
H        1.30699710      -0.68083562       0.23257169      -0.34263919      -0.36304526       0.51056024      -2.27610134       0.45223242      -0.62984087
H        0.03386805       1.19970001       0.87833880       0.21550134      -0.07597154      -0.03326313      -0.24057371       0.39705175      -0.07049895
H       -0.20182185       1.25310892      -0.92185274      -0.14069241      -0.07464127      -0.04621662       0.56097160      -0.60564839       0.15536527
H        3.70002063       0.00417571      -0.01180584      -0.83708431       0.01340981      -0.00472463      -0.58749885       0.22000027      -0.04908562
7
Lattice="13.0 0.0 0.0 0.0 9.0 0.0 0.0 0.0 9.0" Properties=species:S:1:pos:R:3:momenta:R:3:forces:R:3 EPS_SCF=1e-06 energy=-669.9484821053325 units=gap_units Integrated_spin_density=1.92365e-05 opt_dir=/home/tks32/dft_pbe/apr_8_opt_fragments_subset/singlepoint_5_CH3OH time=4.25 free_energy=-669.9484821053325 pbc="T T T"
C       -0.32324699       0.63017990      -0.00545143       0.14482704      -0.41007589      -0.01323105      -1.40916528       1.00749966       0.90696966
O        0.28551427      -0.61704571      -0.01533248       0.77220972       0.82756096      -0.48474904       1.83873323      -1.57323937      -0.11630512
H       -1.49065353       0.52059126       0.12133111       0.27273580       0.08221321       0.14103878       1.87643058       0.00381571      -0.19217549
H        1.29781515      -0.68945240       0.24474883      -0.41095940      -0.35268549       0.48448856      -2.08257024       0.49706192      -0.62167062
H        0.03888252       1.19791445       0.87706689       0.20140835      -0.07402735      -0.07674698      -0.29356586       0.44840645      -0.06496400
H       -0.20545362       1.25104126      -0.92256548      -0.13920232      -0.10403419      -0.03125836       0.58789208      -0.59208624       0.14700822
H        3.67942606       0.00465100      -0.01226642      -0.84101920       0.03104874      -0.01954191      -0.51775451       0.20854187      -0.05886265
7
Lattice="13.0 0.0 0.0 0.0 9.0 0.0 0.0 0.0 9.0" Properties=species:S:1:pos:R:3:momenta:R:3:forces:R:3 EPS_SCF=1e-06 energy=-669.9762089008298 units=gap_units Integrated_spin_density=1.92365e-05 opt_dir=/home/tks32/dft_pbe/apr_8_opt_fragments_subset/singlepoint_5_CH3OH time=4.5 free_energy=-669.9762089008298 pbc="T T T"
C       -0.32302102       0.62947581      -0.00540345       0.08488068      -0.31632180       0.04807925      -1.31117773       1.05320415       0.92483548
O        0.28672740      -0.61584043      -0.01613314       0.83462022       0.76473388      -0.54984954       1.58692525      -1.69712022      -0.16655614
H       -1.48360990       0.52202182       0.12445054       0.30739298       0.03584840       0.11793249       1.74932506      -0.02911413      -0.18019043
H        1.28751019      -0.69774282       0.25652279      -0.42506163      -0.33025777       0.49031256      -1.86190078       0.53424071      -0.59888662
H        0.04340537       1.19617540       0.87516376       0.16042903      -0.06597840      -0.07940645      -0.33992781       0.51026517      -0.03926063
H       -0.20830177       1.24830222      -0.92312387      -0.11250201      -0.12813200      -0.01601698       0.60793986      -0.56680522       0.12916389
H        3.65906533       0.00524841      -0.01256198      -0.84975928       0.04010768      -0.01105132      -0.43118385       0.19532953      -0.06910555
7
Lattice="13.0 0.0 0.0 0.0 9.0 0.0 0.0 0.0 9.0" Properties=species:S:1:pos:R:3:momenta:R:3:forces:R:3 EPS_SCF=1e-06 energy=-670.0019916493011 units=gap_units Integrated_spin_density=1.92365e-05 opt_dir=/home/tks32/dft_pbe/apr_8_opt_fragments_subset/singlepoint_5_CH3OH time=4.75 free_energy=-670.0019916493011 pbc="T T T"
C       -0.32287402       0.62884204      -0.00529066       0.04040620      -0.31528393       0.09928498      -1.19821449       1.08843720       0.94044107
O        0.28802421      -0.61471330      -0.01695165       0.87167453       0.74425626      -0.57959765       1.31895156      -1.80952855      -0.22240065
H       -1.47578507       0.52318099       0.12708430       0.33475446       0.04724360       0.11173238       1.59590132      -0.06310687      -0.16424976
H        1.27669966      -0.70565319       0.26860363      -0.46541762      -0.31212827       0.49841148      -1.62923238       0.56452745      -0.56575726
H        0.04715475       1.19471451       0.87342707       0.15129691      -0.05741182      -0.06565989      -0.38332918       0.57028418      -0.01455114
H       -0.21072871       1.24485645      -0.92371259      -0.08364545      -0.16068923      -0.01947910       0.62427675      -0.53112522       0.10550548
H        3.63839399       0.00656813      -0.01330364      -0.84906903       0.05401340      -0.04469219      -0.32835357       0.18051182      -0.07898774
7
Lattice="13.0 0.0 0.0 0.0 9.0 0.0 0.0 0.0 9.0" Properties=species:S:1:pos:R:3:momenta:R:3:forces:R:3 EPS_SCF=1e-06 energy=-670.0246549732746 units=gap_units Integrated_spin_density=1.92365e-05 opt_dir=/home/tks32/dft_pbe/apr_8_opt_fragments_subset/singlepoint_5_CH3OH time=5.0 free_energy=-670.0246549732746 pbc="T T T"
C       -0.32286096       0.62826512      -0.00501905      -0.01055651      -0.24397781       0.15214617      -1.04321306       1.12087678       0.95255800
O        0.28938659      -0.61360647      -0.01786859       0.88302482       0.70608064      -0.59884458       1.03278913      -1.91114048      -0.28736088
H       -1.46718061       0.52426218       0.12974913       0.36769236       0.03634687       0.09026527       1.41385443      -0.09799378      -0.14617224
H        1.26532100      -0.71321046       0.28056966      -0.47288385      -0.30471476       0.48093729      -1.38005779       0.58717715      -0.51881554
H        0.05065689       1.19357213       0.87195828       0.14724989      -0.04209193      -0.05149219      -0.42520042       0.62474879       0.00325695
H       -0.21272142       1.24081882      -0.92447340      -0.07521088      -0.18029304      -0.03109141       0.63179461      -0.49028555       0.08442848
H        3.61787950       0.00753112      -0.01438761      -0.83931582       0.02865003      -0.04192054      -0.22996690       0.16661709      -0.08789477
7