7
Lattice="13.0 0.0 0.0 0.0 9.0 0.0 0.0 0.0 9.0" Properties=species:S:1:pos:R:3:momenta:R:3:forces:R:3 EPS_SCF=1e-06 energy=-670.0687876864224 units=gap_units Integrated_spin_density=1.92365e-05 opt_dir=/home/tks32/dft_pbe/apr_8_opt_fragments_subset/singlepoint_5_CH3OH time=0.0 free_energy=-670.0687876864224 pbc="T T T"
C       -0.85170330       0.30253923       0.00463343       5.45576389      -0.78295391      -0.42330267      -0.12734795      -0.05430427      -0.00006388
O       -0.23928017      -0.99555437      -0.00239197       6.08037964       1.18098515      -0.51859695      -0.37016440       0.17051029       0.01590349
H       -1.93557585       0.13626839       0.02907194      -0.04505419       0.01870235       0.27550326      -0.14037653       0.17003808       0.00340453
H        0.72321841      -0.86855210      -0.02397487       0.87220168      -0.41663278       0.71450882       0.59833135      -0.25716188      -0.03308861
H       -0.57174008       0.89244562       0.89290117       0.63788730      -0.13487010      -0.04519662       0.07899639      -0.06650139       0.08263577
H       -0.61083911       0.88370095      -0.90069729       0.06259361       0.13476928      -0.00291584       0.06889960      -0.07351054      -0.07606432
H        3.48592011      -0.35084770       0.00045760      -0.36793659       0.00000000       0.00000000      -0.10833847       0.11092971       0.00727303
7
Lattice="13.0 0.0 0.0 0.0 9.0 0.0 0.0 0.0 9.0" Properties=species:S:1:pos:R:3:momenta:R:3:forces:R:3 EPS_SCF=1e-06 energy=-670.0423625263446 units=gap_units Integrated_spin_density=1.92365e-05 opt_dir=/home/tks32/dft_pbe/apr_8_opt_fragments_subset/singlepoint_5_CH3OH time=1.0 free_energy=-670.0423625263446 pbc="T T T"
C       -0.83675122       0.30128569      -0.00877750       0.60541121      -0.74998533      -0.29786063      -1.16895704       0.04965002       0.25425372
O       -0.22526517      -0.98320630      -0.02743351       0.17932296       1.08621745      -0.58428125       1.16248378      -0.04453088      -0.09334345
H       -1.95531441       0.14553355       0.03601321      -0.37059482       0.11145640       0.28244096       1.21037740       0.25414935      -0.08043303
H        0.76268123      -0.90461868       0.02546981       0.42679671      -0.45185919       0.71915281      -1.25952584      -0.20191175      -0.07710776
H       -0.54303087       0.87582261       0.88592290       0.22061079      -0.12014507      -0.04133542       0.07569801      -0.00256622       0.07133197
H       -0.62564667       0.90522937      -0.90848881      -0.31490715       0.11583132      -0.04430264       0.19507674      -0.25054890      -0.06905611
H        3.42332711      -0.34004625      -0.00270609      -0.74663970       0.00848441      -0.03381383      -0.21515305       0.19575838      -0.00564535
7
Lattice="13.0 0.0 0.0 0.0 9.0 0.0 0.0 0.0 9.0" Properties=species:S:1:pos:R:3:momenta:R:3:forces:R:3 EPS_SCF=1e-06 energy=-669.926428165459 units=gap_units Integrated_spin_density=1.92365e-05 opt_dir=/home/tks32/dft_pbe/apr_8_opt_fragments_subset/singlepoint_5_CH3OH time=2.0 free_energy=-669.926428165459 pbc="T T T"
C       -0.82243879       0.30014071      -0.02121328       0.40784524      -0.66489645      -0.35241116      -1.64099982       0.27523659       0.46399183
O       -0.21084384      -0.97097157      -0.05194709       0.36970388       1.11225934      -0.44399823       2.18965154      -0.40889963      -0.04987043
H       -1.96689213       0.15439715       0.04223439      -0.23792528       0.06958833       0.22582726       1.94182664       0.24376188      -0.15988214
H        0.79363428      -0.94061067       0.07279393       0.25243030      -0.43434371       0.68875403      -2.43423291      -0.00096747      -0.30709959
H       -0.51482930       0.85976934       0.87961040       0.22646736      -0.14271661      -0.03543513       0.05866101       0.08892290       0.02005654
H       -0.63854345       0.92436123      -0.91564526      -0.28655100       0.04142862      -0.05436858       0.31956868      -0.45221119       0.04255273
H        3.35991322      -0.32708619      -0.00583308      -0.73197050       0.01868047      -0.02836819      -0.43447513       0.25415692      -0.00974894
7
Lattice="13.0 0.0 0.0 0.0 9.0 0.0 0.0 0.0 9.0" Properties=species:S:1:pos:R:3:momenta:R:3:forces:R:3 EPS_SCF=1e-06 energy=-669.8634274004843 units=gap_units Integrated_spin_density=1.92365e-05 opt_dir=/home/tks32/dft_pbe/apr_8_opt_fragments_subset/singlepoint_5_CH3OH time=3.0 free_energy=-669.8634274004843 pbc="T T T"
C       -0.80942403       0.29935644      -0.03190850       0.24206383      -0.66818567      -0.23142061      -1.73376804       0.54086872       0.71512896
O       -0.19462761      -0.95882079      -0.07574746       0.63544674       1.10736623      -0.40817199       2.46118348      -0.90004006      -0.01518832
H       -1.96464470       0.16159241       0.04753325      -0.01826064       0.07331815       0.18538303       2.15571171       0.17102914      -0.20894337
H        0.81052073      -0.97420270       0.11621848      -0.06159485      -0.41842329       0.60761589      -2.68779689       0.23758222      -0.53202732
H       -0.48862241       0.84513201       0.87438568       0.23756117      -0.11314631      -0.05205079      -0.02843754       0.23700937      -0.02803200
H       -0.64846084       0.93914997      -0.92160823      -0.23199520      -0.00887299      -0.06046480       0.45033275      -0.54749018       0.08728579
H        3.29525886      -0.31220734      -0.00887321      -0.80322104       0.02794387      -0.04089073      -0.61722546       0.26104079      -0.01822374
7
Lattice="13.0 0.0 0.0 0.0 9.0 0.0 0.0 0.0 9.0" Properties=species:S:1:pos:R:3:momenta:R:3:forces:R:3 EPS_SCF=1e-06 energy=-669.9214192362601 units=gap_units Integrated_spin_density=1.92365e-05 opt_dir=/home/tks32/dft_pbe/apr_8_opt_fragments_subset/singlepoint_5_CH3OH time=4.0 free_energy=-669.9214192362601 pbc="T T T"
C       -0.79765398       0.29913233      -0.04030170       0.09695241      -0.46829551      -0.05211312      -1.49988412       0.93600013       0.87179218
O       -0.17655648      -0.94664477      -0.09890067       0.79128003       0.88555330      -0.50905168       2.06219386      -1.44101877      -0.07527736
H       -1.94705587       0.16637200       0.05206677       0.21668213       0.08299046       0.13480893       1.98089256       0.04138260      -0.20245465
H        0.81123169      -1.00429900       0.15470240      -0.34263919      -0.36304526       0.51056024      -2.27610134       0.45223242      -0.62984087
H       -0.46551535       0.83255089       0.87050445       0.21550134      -0.07597154      -0.03326313      -0.24057371       0.39705175      -0.07049895
H       -0.65388975       0.94833585      -0.92612158      -0.14069241      -0.07464127      -0.04621662       0.56097160      -0.60564839       0.15536527
H        3.22943975      -0.29544730      -0.01194967      -0.83708431       0.01340981      -0.00472463      -0.58749885       0.22000027      -0.04908562
7
Lattice="13.0 0.0 0.0 0.0 9.0 0.0 0.0 0.0 9.0" Properties=species:S:1:pos:R:3:momenta:R:3:forces:R:3 EPS_SCF=1e-06 energy=-670.0246549732746 units=gap_units Integrated_spin_density=1.92365e-05 opt_dir=/home/tks32/dft_pbe/apr_8_opt_fragments_subset/singlepoint_5_CH3OH time=5.0 free_energy=-670.0246549732746 pbc="T T T"
C       -0.78684385       0.29979033      -0.04607546      -0.01055651      -0.24397781       0.15214617      -1.04321306       1.12087678       0.95255800
O       -0.15771390      -0.93493701      -0.12169616       0.88302482       0.70608064      -0.59884458       1.03278913      -1.91114048      -0.28736088
H       -1.91558950       0.16877978       0.05606563       0.36769236       0.03634687       0.09026527       1.41385443      -0.09799378      -0.14617224
H        0.79717102      -1.03166830       0.18818040      -0.47288385      -0.30471476       0.48093729      -1.38005779       0.58717715      -0.51881554
H       -0.44636554       0.82271428       0.86810173       0.14724989      -0.04209193      -0.05149219      -0.42520042       0.62474879       0.00325695
H       -0.65369171       0.95185803      -0.92919840      -0.07521088      -0.18029304      -0.03109141       0.63179461      -0.49028555       0.08442848
H        3.16303349      -0.27653711      -0.01537775      -0.83931582       0.02865003      -0.04192054      -0.22996690       0.16661709      -0.08789477
7
Lattice="13.0 0.0 0.0 0.0 9.0 0.0 0.0 0.0 9.0" Properties=species:S:1:pos:R:3:momenta:R:3:forces:R:3 EPS_SCF=1e-06 energy=-670.074760779626 units=gap_units Integrated_spin_density=1.92365e-05 opt_dir=/home/tks32/dft_pbe/apr_8_opt_fragments_subset/singlepoint_5_CH3OH time=6.0 free_energy=-670.074760779626 pbc="T T T"
C       -0.77649129       0.30144434      -0.04937578      -0.09931723      -0.14189494       0.24212349      -0.02221506       1.19881486       1.02986603
O       -0.13853025      -0.92370188      -0.14483425       1.01896820       0.55630284      -0.62722857      -0.20543439      -2.16837062      -0.67274042
H       -1.87535613       0.16796610       0.06001708       0.43815765       0.02858902       0.12535246       0.33411776      -0.24323899      -0.05505798
H        0.77321612      -1.05557964       0.21773172      -0.57315523      -0.22281661       0.42267672      -0.18171057       0.57680987      -0.14925659
H       -0.43213777       0.81640337       0.86715290       0.04616807       0.02127070      -0.05067151      -0.54886834       0.77418629       0.01127514
H       -0.64802719       0.95087495      -0.93115668      -0.02248663      -0.28845300      -0.05493804       0.55387060      -0.23027721      -0.05748630
H        3.09732651      -0.25740723      -0.01953499      -0.80833483       0.04700201      -0.05731455       0.07024001       0.09207580      -0.10659988
7
Lattice="13.0 0.0 0.0 0.0 9.0 0.0 0.0 0.0 9.0" Properties=species:S:1:pos:R:3:momenta:R:3:forces:R:3 EPS_SCF=1e-06 energy=-670.0174778519472 units=gap_units Integrated_spin_density=1.92365e-05 opt_dir=/home/tks32/dft_pbe/apr_8_opt_fragments_subset/singlepoint_5_CH3OH time=7.0 free_energy=-670.0174778519472 pbc="T T T"
C       -0.76567618       0.30417933      -0.05068397      -0.04233945       0.01869316       0.44237282       1.34955858       1.22896122       0.87078848
O       -0.11912804      -0.91292967      -0.16922285       0.81485428       0.36009257      -0.80902528      -1.23538670      -2.19958970      -1.15411774
H       -1.83428015       0.16335572       0.06442778       0.49052446      -0.03664558       0.15399070      -1.21863835      -0.37214110       0.09641643
H        0.74524159      -1.07657034       0.24516810      -0.47155674      -0.15261112       0.47160435       0.94766465       0.41880846       0.39344721
H       -0.42287040       0.81435566       0.86758116      -0.01409878       0.08236108      -0.09615703      -0.54021470       0.87538483       0.03901270
H       -0.63749459       0.94739146      -0.93251136       0.02950822      -0.29464013      -0.08961615       0.33491975       0.04699573      -0.15184298
H        3.03420778      -0.23978216      -0.02475885      -0.80689199       0.02275002      -0.07316941       0.36209678       0.00158056      -0.09370410
7
Lattice="13.0 0.0 0.0 0.0 9.0 0.0 0.0 0.0 9.0" Properties=species:S:1:pos:R:3:momenta:R:3:forces:R:3 EPS_SCF=1e-06 energy=-669.8904427766738 units=gap_units Integrated_spin_density=1.92365e-05 opt_dir=/home/tks32/dft_pbe/apr_8_opt_fragments_subset/singlepoint_5_CH3OH time=8.0 free_energy=-669.8904427766738 pbc="T T T"
C       -0.75341269       0.30780601      -0.05057303       0.21206286       0.10713370       0.48936341       2.50806108       1.19439908       0.56646539
O       -0.09942820      -0.90266514      -0.19563314       0.60921709       0.29093217      -0.92877475      -1.44929201      -2.24442891      -1.41883438
H       -1.80039316       0.15467154       0.06950882       0.31079649      -0.13939221       0.14347273      -2.73549180      -0.39542731       0.28151967
H        0.71826215      -1.09589781       0.27245645      -0.40906827      -0.12137689       0.53110908       1.38271707       0.26066927       0.76442265
H       -0.41754211       0.81712191       0.86945881      -0.06519827       0.15674865      -0.08242729      -0.44567724       0.93664890       0.09336567
H       -0.62320638       0.94378704      -0.93401404       0.05415633      -0.29733045      -0.05864098       0.06131274       0.31686819      -0.22495594
H        2.97572039      -0.22482356      -0.03120387      -0.71196623       0.00328503      -0.09410219       0.67837017      -0.06872922      -0.06198306
7
Lattice="13.0 0.0 0.0 0.0 9.0 0.0 0.0 0.0 9.0" Properties=species:S:1:pos:R:3:momenta:R:3:forces:R:3 EPS_SCF=1e-06 energy=-669.8081903045136 units=gap_units Integrated_spin_density=1.92365e-05 opt_dir=/home/tks32/dft_pbe/apr_8_opt_fragments_subset/singlepoint_5_CH3OH time=9.0 free_energy=-669.8081903045136 pbc="T T T"
C       -0.73917944       0.31189426      -0.04946200       0.25296756       0.13958671       0.50205644       2.80213158       1.07272115       0.39312570
O       -0.07910396      -0.89327686      -0.22428838       0.69648803       0.07979719      -0.99682625      -1.05775927      -2.27189670      -1.37276847
H       -1.77886517       0.14202932       0.07481961       0.05966739      -0.13288842       0.20443077      -3.39498956      -0.35205006       0.37457447
H        0.69499835      -1.11483808       0.30105609      -0.29712038      -0.10076583       0.62230580       1.22817775       0.17955713       0.85955409
H       -0.41448472       0.82499207       0.87296278      -0.08642346       0.25570079      -0.08442992      -0.29402128       0.90937968       0.12947721
H       -0.60693062       0.94222573      -0.93629458       0.02112068      -0.26838729      -0.10274659      -0.14880187       0.56234619      -0.35277543
H        2.92356556      -0.21302643      -0.03879352      -0.64669982       0.02695685      -0.14479025       0.86526264      -0.10005738      -0.03118757
7
Lattice="13.0 0.0 0.0 0.0 9.0 0.0 0.0 0.0 9.0" Properties=species:S:1:pos:R:3:momenta:R:3:forces:R:3 EPS_SCF=1e-06 energy=-669.8476183281246 units=gap_units Integrated_spin_density=1.92365e-05 opt_dir=/home/tks32/dft_pbe/apr_8_opt_fragments_subset/singlepoint_5_CH3OH time=10.0 free_energy=-669.8476183281246 pbc="T T T"
C       -0.72274841       0.31574535      -0.04752432       0.50167626       0.24066968       0.47538861       1.77010155       0.89548828       0.41943903
O       -0.05763347      -0.88502541      -0.25460174       0.70939575      -0.11562789      -1.04656275      -0.11634876      -2.29149383      -0.80810805
H       -1.77178457       0.12588505       0.07950138      -0.27333333      -0.16629365       0.24585579      -2.62440417      -0.19181193       0.22801320
H        0.67551826      -1.13380754       0.33119919      -0.23330862      -0.07209215       0.68984926       0.46567897       0.25021516       0.46969892
H       -0.41175160       0.83771322       0.87795168      -0.09795586       0.34438789      -0.11049968      -0.13015253       0.75259413       0.06975688
H       -0.59037089       0.94383738      -0.93936669      -0.01704502      -0.24621251      -0.14217714      -0.29447494       0.69245036      -0.36702426
H        2.87877068      -0.20434804      -0.04715950      -0.58942918       0.01516864      -0.11185409       0.92959988      -0.10744217      -0.01177572
7
Lattice="13.0 0.0 0.0 0.0 9.0 0.0 0.0 0.0 9.0" Properties=species:S:1:pos:R:3:momenta:R:3:forces:R:3 EPS_SCF=1e-06 energy=-669.9056519536814 units=gap_units Integrated_spin_density=1.92365e-05 opt_dir=/home/tks32/dft_pbe/apr_8_opt_fragments_subset/singlepoint_5_CH3OH time=11.0 free_energy=-669.9056519536814 pbc="T T T"
C       -0.70458728       0.31872197      -0.04475669       0.60285137       0.34793845       0.58773693      -0.18310067       0.59831716       0.43975745
O       -0.03432756      -0.87842463      -0.28524647       0.83347414      -0.48915510      -1.14308433       1.00238783      -2.11515343       0.17089401
H       -1.77689402       0.10736880       0.08265780      -0.48512680      -0.17038673       0.25502229      -0.84475456       0.08881812      -0.13577667
H        0.65775443      -1.15242434       0.36163462      -0.22872360      -0.00823690       0.73076147      -0.50804224       0.38648683      -0.30413461
H       -0.40812647       0.85460011       0.88367949      -0.07745366       0.45683699      -0.10568388       0.03970745       0.51075463      -0.02532092
H       -0.57523403       0.94848834      -0.94233905      -0.11030464      -0.16230264      -0.18404608      -0.37748246       0.64321026      -0.13510000
H        2.84141492      -0.19833026      -0.05562970      -0.53471679       0.02530593      -0.14070640       0.87128464      -0.11243358      -0.01031927
7
Lattice="13.0 0.0 0.0 0.0 9.0 0.0 0.0 0.0 9.0" Properties=species:S:1:pos:R:3:momenta:R:3:forces:R:3 EPS_SCF=1e-06 energy=-669.8535086214774 units=gap_units Integrated_spin_density=1.92365e-05 opt_dir=/home/tks32/dft_pbe/apr_8_opt_fragments_subset/singlepoint_5_CH3OH time=12.0 free_energy=-669.8535086214774 pbc="T T T"
C       -0.68572847       0.32027963      -0.04115746       0.43899777       0.41135516       0.66587927      -1.79484712       0.41884401       0.22808686
O       -0.00882749      -0.87386681      -0.31447215       0.88247121      -0.60624440      -1.02806412       1.87224460      -1.71736983       1.20792460
H       -1.78826707       0.08806057       0.08367173      -0.47586332      -0.17809269       0.16915308       0.78901261       0.39181303      -0.43411845
H        0.63860111      -1.16962765       0.39015647      -0.27193557       0.04677747       0.63323934      -1.20691366       0.42838782      -1.10123169
H       -0.40333374       0.87444683       0.88883969      -0.02355590       0.44664113      -0.11241946       0.06605443       0.14087235      -0.21791660
H       -0.56310508       0.95501794      -0.94367403      -0.12154998      -0.12038040      -0.19227285      -0.42946154       0.46814775       0.33909735
H        2.81066075      -0.19431051      -0.06336425      -0.42856421      -0.00005626      -0.13551528       0.70391069      -0.13069512      -0.02184206
7
Lattice="13.0 0.0 0.0 0.0 9.0 0.0 0.0 0.0 9.0" Properties=species:S:1:pos:R:3:momenta:R:3:forces:R:3 EPS_SCF=1e-06 energy=-669.7390438111702 units=gap_units Integrated_spin_density=1.92365e-05 opt_dir=/home/tks32/dft_pbe/apr_8_opt_fragments_subset/singlepoint_5_CH3OH time=13.0 free_energy=-669.7390438111702 pbc="T T T"
C       -0.66754015       0.32012775      -0.03689300       0.19684743       0.31005074       0.66662135      -2.63286539       0.35881871      -0.13525280
O        0.01873370      -0.87146815      -0.34053013       1.16041015      -0.63043898      -0.89252241       2.29613791      -1.18473980       1.95399981
H       -1.79817697       0.06965808       0.08228999      -0.34244839      -0.09906631       0.11817694       1.70785089       0.61275932      -0.52732139
H        0.61506343      -1.18419151       0.41441270      -0.40741426       0.09857663       0.48865377      -1.45078010       0.33403749      -1.60055865
H       -0.39788507       0.89570651       0.89197073      -0.03199652       0.42220389      -0.14761872      -0.00153752      -0.26598196      -0.38720819
H       -0.55525989       0.96173799      -0.94165647      -0.17035460      -0.07747591      -0.08828635      -0.43258547       0.30384823       0.73511043
H        2.78506494      -0.19157066      -0.06959381      -0.40504381      -0.02385005      -0.14502458       0.51377969      -0.15874199      -0.03876921
7
Lattice="13.0 0.0 0.0 0.0 9.0 0.0 0.0 0.0 9.0" Properties=species:S:1:pos:R:3:momenta:R:3:forces:R:3 EPS_SCF=1e-06 energy=-669.6718223839542 units=gap_units Integrated_spin_density=1.92365e-05 opt_dir=/home/tks32/dft_pbe/apr_8_opt_fragments_subset/singlepoint_5_CH3OH time=14.0 free_energy=-669.6718223839542 pbc="T T T"
C       -0.65146416       0.31843406      -0.03233323      -0.04373887       0.40425845       0.56455235      -3.03870525       0.29676392      -0.45897518
O        0.04803015      -0.87121134      -0.36213920       1.36344366      -0.71509357      -0.60889615       2.30754737      -0.57918891       2.31555888
H       -1.79950879       0.05375096       0.07872550      -0.14370136      -0.02876661       0.09738068       2.09824994       0.67818748      -0.52139812
H        0.58531554      -1.19551968       0.43255494      -0.50370859       0.08554534       0.31256217      -1.32915423       0.14203844      -1.72044585
H       -0.39283448       0.91693974       0.89191409      -0.05679540       0.39106974      -0.25552787       0.01045671      -0.56124245      -0.38497600
H       -0.55242421       0.96701560      -0.93493695      -0.20989248      -0.05329449       0.02862674      -0.39119062       0.21436473       0.82841439
H        2.76288596      -0.18940936      -0.07378515      -0.40560696      -0.08371887      -0.13869793       0.34279607      -0.19092321      -0.05817813
7
Lattice="13.0 0.0 0.0 0.0 9.0 0.0 0.0 0.0 9.0" Properties=species:S:1:pos:R:3:momenta:R:3:forces:R:3 EPS_SCF=1e-06 energy=-669.691081323624 units=gap_units Integrated_spin_density=1.92365e-05 opt_dir=/home/tks32/dft_pbe/apr_8_opt_fragments_subset/singlepoint_5_CH3OH time=15.0 free_energy=-669.691081323624 pbc="T T T"
C       -0.63857290       0.31565874      -0.02799120      -0.27182460       0.42681446       0.54816654      -3.25847126       0.24817950      -0.58311521
O        0.07844606      -0.87257416      -0.37887772       1.49731807      -0.81646626      -0.44068703       2.00502931       0.04236304       2.23418891
H       -1.78797550       0.04144910       0.07368102       0.06078057       0.06391883       0.03492908       2.19464158       0.62170606      -0.45126244
H        0.54938487      -1.20424272       0.44404536      -0.61128966       0.12496229       0.17247520      -0.93751649      -0.12085291      -1.43611739
H       -0.38913340       0.93687863       0.88819986      -0.04710026       0.30241912      -0.27294023       0.09122782      -0.75898406      -0.27120188
H       -0.55451250       0.96993181      -0.92326054      -0.25533303       0.00301973       0.11413787      -0.29127423       0.18860478       0.58180800
H        2.74236337      -0.18710138      -0.07579678      -0.37255110      -0.10466817      -0.15608142       0.19636327      -0.22101641      -0.07429998
7
Lattice="13.0 0.0 0.0 0.0 9.0 0.0 0.0 0.0 9.0" Properties=species:S:1:pos:R:3:momenta:R:3:forces:R:3 EPS_SCF=1e-06 energy=-669.7689927135303 units=gap_units Integrated_spin_density=1.92365e-05 opt_dir=/home/tks32/dft_pbe/apr_8_opt_fragments_subset/singlepoint_5_CH3OH time=16.0 free_energy=-669.7689927135303 pbc="T T T"
C       -0.62933246       0.31249978      -0.02429514      -0.64293100       0.60407243       0.34962047      -3.20627165       0.24252351      -0.54780028
O        0.10938325      -0.87463393      -0.39117201       1.65396469      -0.95923448      -0.19281203       1.45145631       0.64852220       1.61374550
H       -1.76325863       0.03312778       0.06814760       0.28270829       0.10997206       0.01595677       1.96858800       0.50032671      -0.31682822
H        0.50906739      -1.21237310       0.44997853      -0.65987583       0.09582123       0.09074315      -0.30831468      -0.46239481      -0.65268286
H       -0.38704468       0.95441546       0.88106508      -0.01622206       0.25609476      -0.29490036       0.17905251      -0.89817764      -0.15639607
H       -0.56079447       0.97089513      -0.90784419      -0.26718414      -0.00054381       0.18363705      -0.16281238       0.21346838       0.14620345
H        2.72197960      -0.18393112      -0.07587987      -0.35045996      -0.10618218      -0.15224506       0.07830190      -0.24426835      -0.08624152
7
Lattice="13.0 0.0 0.0 0.0 9.0 0.0 0.0 0.0 9.0" Properties=species:S:1:pos:R:3:momenta:R:3:forces:R:3 EPS_SCF=1e-06 energy=-669.8323180627381 units=gap_units Integrated_spin_density=1.92365e-05 opt_dir=/home/tks32/dft_pbe/apr_8_opt_fragments_subset/singlepoint_5_CH3OH time=17.0 free_energy=-669.8323180627381 pbc="T T T"
C       -0.62350046       0.30969166      -0.02144610      -0.86633164       0.44082086       0.20711645      -2.61914384       0.26922331      -0.33852551
O        0.14049481      -0.87613918      -0.39990641       1.70609893      -0.71529772      -0.07348307       0.87017939       1.19934764       0.69113959
H       -1.72889395       0.02820037       0.06308982       0.45204519       0.13747284       0.01278287       1.25200130       0.28723463      -0.09397531
H        0.46711645      -1.22270662       0.45267122      -0.62168454       0.03320657       0.04614083       0.35766098      -0.83757931       0.42213865
H       -0.38577755       0.96861352       0.87133446      -0.02599644       0.24796738      -0.24143132       0.27020692      -1.00788585      -0.06910257
H       -0.57004787       0.97164628      -0.89118933      -0.24989408      -0.00941608       0.20155994      -0.04597527       0.34704124      -0.52344169
H        2.70060857      -0.17930603      -0.07455366      -0.39423742      -0.13475385      -0.15268570      -0.08492948      -0.25738166      -0.08823316
7
Lattice="13.0 0.0 0.0 0.0 9.0 0.0 0.0 0.0 9.0" Properties=species:S:1:pos:R:3:momenta:R:3:forces:R:3 EPS_SCF=1e-06 energy=-669.8291433046941 units=gap_units Integrated_spin_density=1.92365e-05 opt_dir=/home/tks32/dft_pbe/apr_8_opt_fragments_subset/singlepoint_5_CH3OH time=18.0 free_energy=-669.8291433046941 pbc="T T T"
C       -0.62017376       0.30792122      -0.01941481      -1.04207487       0.57076805       0.30225287      -1.22706436       0.30715154      -0.20405043
O        0.17196120      -0.87577088      -0.40589348       1.67799774      -0.67452003      -0.17310104       0.52009387       1.63748110      -0.01826574
H       -1.69123907       0.02517535       0.05939310       0.48569744       0.13672053      -0.00280537      -0.17633144       0.00845742       0.23755255
H        0.42638204      -1.23797771       0.45453227      -0.55795738      -0.09562807       0.13084507       0.74246106      -1.12252653       1.23591435
H       -0.38377341       0.97890211       0.85999006       0.02793776       0.14019052      -0.26373563       0.32522868      -1.05766942      -0.01972189
H       -0.58063423       0.97467537      -0.87627546      -0.22293763       0.03228830       0.16554388      -0.00617556       0.50293235      -1.13779557
H        2.67747723      -0.17292545      -0.07233168      -0.36866306      -0.10981929      -0.15899979      -0.17821226      -0.27582645      -0.09363327
7
Lattice="13.0 0.0 0.0 0.0 9.0 0.0 0.0 0.0 9.0" Properties=species:S:1:pos:R:3:momenta:R:3:forces:R:3 EPS_SCF=1e-06 energy=-669.7837949344339 units=gap_units Integrated_spin_density=1.92365e-05 opt_dir=/home/tks32/dft_pbe/apr_8_opt_fragments_subset/singlepoint_5_CH3OH time=19.0 free_energy=-669.7837949344339 pbc="T T T"
C       -0.61794826       0.30772668      -0.01807856      -0.95834459       0.51117853       0.21922053       0.67918126       0.27379952      -0.46588836
O        0.20444622      -0.87240216      -0.40947038       1.69563966      -0.39312816      -0.12212649       0.50261207       1.92072442       0.07413320
H       -1.65790648       0.02199486       0.05784552       0.37023405       0.15136498       0.06036643      -1.98534183      -0.31672374       0.65511605
H        0.38920428      -1.25990917       0.45695310      -0.50067715      -0.20762423       0.23142793       0.68703471      -1.17524858       1.15113146
H       -0.37926750       0.98524309       0.84790371       0.05857742       0.03186138      -0.24907243       0.38452258      -0.94778357       0.08465745
H       -0.59062730       0.98227608      -0.86566524      -0.22707099       0.06367504       0.04466482      -0.01213891       0.54521056      -1.40389919
H        2.65209903      -0.16492937      -0.06948816      -0.43835840      -0.15732754      -0.18448079      -0.25586989      -0.29997860      -0.09525061
7
Lattice="13.0 0.0 0.0 0.0 9.0 0.0 0.0 0.0 9.0" Properties=species:S:1:pos:R:3:momenta:R:3:forces:R:3 EPS_SCF=1e-06 energy=-669.7633515691728 units=gap_units Integrated_spin_density=1.92365e-05 opt_dir=/home/tks32/dft_pbe/apr_8_opt_fragments_subset/singlepoint_5_CH3OH time=20.0 free_energy=-669.7633515691728 pbc="T T T"
C       -0.61535264       0.30941813      -0.01739742      -0.84496285       0.44868463       0.31246629       2.05097232       0.19338203      -1.10892058
O        0.23876906      -0.86538136      -0.41034308       1.73957303      -0.15782599      -0.24752712       0.58504176       2.06057325       0.79722583
H       -1.63567694       0.01652443       0.05897142       0.11398426       0.10914751       0.14028638      -3.19465554      -0.55702716       1.02424258
H        0.35714034      -1.28834972       0.45961128      -0.46444676      -0.31464001       0.30840429       0.46045231      -1.02985574       0.36448528
H       -0.37082750       0.98825044       0.83595520       0.15136123      -0.00529192      -0.24886180       0.43312199      -0.74463542       0.22606034
H       -0.59814606       0.99553782      -0.86085868      -0.23218431       0.12557525      -0.07191341       0.03282491       0.40475160      -1.21815164
H        2.62409373      -0.15599974      -0.06593873      -0.46332459      -0.20564946      -0.19285463      -0.36775775      -0.32718857      -0.08494182
7