7
Lattice="13.0 0.0 0.0 0.0 9.0 0.0 0.0 0.0 9.0" Properties=species:S:1:pos:R:3:momenta:R:3:forces:R:3:map_shift:I:3:n_neighb:I:1:force:R:3:local_energy:R:1:gap_var:R:1:gap_variance_gradient:R:3 EPS_SCF=1e-06 energy=-671.7378753921473 units=gap_units Integrated_spin_density=1.924e-05 opt_dir=/home/tks32/dft_pbe/apr_8_opt_fragments_subset/singlepoint_5_CH3OH time=80.0 free_energy=-671.7378753921473 cutoff=8.0 nneightol=1.2 pbc="T T T"
C       -0.66988468       0.36070383      -0.03597482      -0.31755189       0.20554123      -0.72739919       0.00367807      -0.00253389      -0.00162513        0        0        0       14       0.38672020      -0.79668979       1.02130473    -154.85775678       0.00448875      -0.00544893       0.00086698       0.00233657
O        0.65241846      -0.28637918       0.00254417       0.81008310      -0.91349911      -1.00947518       0.00570049       0.01200801       0.00887613        0        0        0       12      -1.55133336       1.36140503      -1.12138439    -436.49689155       0.00909530       0.01672761       0.00191792      -0.01300883
H       -1.47520275      -0.32209749      -0.36633028      -0.18886903       0.28104581       0.54177865      -0.00628607       0.00178355       0.01725094        0        0        0       11       0.13731432       0.17218991       0.20547067     -16.13131263       0.00408841      -0.00631119       0.00292362       0.00265222
H        0.72311320      -1.01379350       0.65320900       0.07114053      -0.47466848       0.82710319       0.00706101      -0.01781356      -0.04290326        0        0        0       14       0.28594222      -0.58676237       0.77402327     -15.66993945       0.00522586       0.00400979       0.00048895      -0.00783020
H       -0.94779997       0.79979088       0.93765673       0.25883444       0.18186623      -0.11931727       0.02144312       0.00970142      -0.00681776        0        0        0       15       0.13040586      -0.25533422      -0.52127414     -15.83183779       0.00443904       0.00343938      -0.00249757      -0.00363565
H       -0.61746975       1.18954256      -0.76940510      -0.44120399       0.03986781       0.11509125      -0.01198216      -0.00879821      -0.01197905        0        0        0       14       0.20652967       0.26096981      -0.45801438     -16.09757688       0.00432027      -0.00798827       0.00220023       0.00206219
H        2.33482548      -0.72776711      -0.42169972      -0.19243317       0.67984652       0.37221854      -0.01961445       0.00565269       0.03719813        0        0        0       12       0.40442109      -0.15577837       0.09987423     -15.80083070       0.01448637      -0.00442839      -0.00590012       0.01742371
7
Lattice="13.0 0.0 0.0 0.0 9.0 0.0 0.0 0.0 9.0" Properties=species:S:1:pos:R:3:momenta:R:3:forces:R:3 EPS_SCF=1e-06 energy=-671.1228213470846 units=gap_units Integrated_spin_density=1.924e-05 opt_dir=/home/tks32/dft_pbe/apr_8_opt_fragments_subset/singlepoint_5_CH3OH time=80.0 free_energy=-671.1228213470846 cutoff=8.0 nneightol=1.2 pbc="T T T"
C       -0.67183072       0.35853960      -0.03984723      -0.31755189       0.20554123      -0.72739919       0.00382494      -0.00174679      -0.01274992
O        0.64644952      -0.29692615      -0.01592943       0.81008310      -0.91349911      -1.00947518       0.00790121      -0.01731608       0.04288220
H       -1.47492753      -0.31793702      -0.38850263      -0.18886903       0.28104581       0.54177865      -0.00412845       0.00056809       0.02444142
H        0.74577582      -0.96892957       0.68901090       0.07114053      -0.47466848       0.82710319      -0.03088347      -0.01314207      -0.05573202
H       -0.95480318       0.77448778       0.94130635       0.25883444       0.18186623      -0.11931727      -0.00232221       0.02769296       0.00575722
H       -0.61828146       1.20385761      -0.75395030      -0.44120399       0.03986781       0.11509125       0.00573075      -0.01970542      -0.00763118
H        2.32761755      -0.75309226      -0.43208766      -0.19243317       0.67984652       0.37221854       0.01987723       0.02364930       0.00303228
7
Lattice="13.0 0.0 0.0 0.0 9.0 0.0 0.0 0.0 9.0" Properties=species:S:1:pos:R:3:momenta:R:3:forces:R:3 EPS_SCF=1e-06 energy=-671.1163247755699 units=gap_units Integrated_spin_density=1.924e-05 opt_dir=/home/tks32/dft_pbe/apr_8_opt_fragments_subset/singlepoint_5_CH3OH time=80.0 free_energy=-671.1163247755699 cutoff=8.0 nneightol=1.2 pbc="T T T"
C       -0.67265676       0.35553068      -0.04341991      -0.31755189       0.20554123      -0.72739919      -0.00810049      -0.00692972       0.04355277
O        0.63929537      -0.31267336      -0.02986928       0.81008310      -0.91349911      -1.00947518      -0.00170069       0.08363152      -0.04923825
H       -1.47598505      -0.31235789      -0.40663596      -0.18886903       0.28104581       0.54177865       0.00095001      -0.01030561       0.02598410
H        0.76239117      -0.92650001       0.71903691       0.07114053      -0.47466848       0.82710319      -0.01621241      -0.11310511       0.01795174
H       -0.96166405       0.75298577       0.94402822       0.25883444       0.18186623      -0.11931727       0.01379401       0.02431598      -0.01915999
H       -0.61487670       1.21388960      -0.73973147      -0.44120399       0.03986781       0.11509125       0.00305208      -0.00139700      -0.03636469
H        2.32349601      -0.77087481      -0.44340853      -0.19243317       0.67984652       0.37221854       0.00821749       0.02378995       0.01727433
7
Lattice="13.0 0.0 0.0 0.0 9.0 0.0 0.0 0.0 9.0" Properties=species:S:1:pos:R:3:momenta:R:3:forces:R:3 EPS_SCF=1e-06 energy=-671.1143976567494 units=gap_units Integrated_spin_density=1.924e-05 opt_dir=/home/tks32/dft_pbe/apr_8_opt_fragments_subset/singlepoint_5_CH3OH time=80.0 free_energy=-671.1143976567494 cutoff=8.0 nneightol=1.2 pbc="T T T"
C       -0.67361729       0.35631063      -0.04486948      -0.31755189       0.20554123      -0.72739919       0.01560153      -0.03656211       0.07649785
O        0.63702651      -0.31753213      -0.03068712       0.81008310      -0.91349911      -1.00947518       0.00787587       0.13174626      -0.10464932
H       -1.47406914      -0.31282246      -0.41235460      -0.18886903       0.28104581       0.54177865      -0.02253965       0.01026937       0.05180330
H        0.76809132      -0.92074138       0.72505802       0.07114053      -0.47466848       0.82710319      -0.05030045      -0.11459633       0.03733102
H       -0.95945034       0.74984755       0.94551389       0.25883444       0.18186623      -0.11931727      -0.02355189       0.01925984      -0.04310892
H       -0.61683687       1.21782454      -0.73832748      -0.44120399       0.03986781       0.11509125       0.03037238      -0.02695610      -0.02529458
H        2.31885580      -0.77288676      -0.44433323      -0.19243317       0.67984652       0.37221854       0.04254221       0.01683907       0.00742065
7
Lattice="13.0 0.0 0.0 0.0 9.0 0.0 0.0 0.0 9.0" Properties=species:S:1:pos:R:3:momenta:R:3:forces:R:3 EPS_SCF=1e-06 energy=-671.0883780869863 units=gap_units Integrated_spin_density=1.924e-05 opt_dir=/home/tks32/dft_pbe/apr_8_opt_fragments_subset/singlepoint_5_CH3OH time=80.0 free_energy=-671.0883780869863 cutoff=8.0 nneightol=1.2 pbc="T T T"
C       -0.67018991       0.34539567      -0.04804884      -0.31755189       0.20554123      -0.72739919      -0.04568250      -0.00018542       0.06660817
O        0.63898288      -0.33732800      -0.00686547       0.81008310      -0.91349911      -1.00947518      -0.12843545       0.06868401      -0.05172489
H       -1.47612501      -0.30189721      -0.45106826      -0.18886903       0.28104581       0.54177865       0.09683677      -0.02951525       0.01710244
H        0.78420801      -0.85084684       0.80932319       0.07114053      -0.47466848       0.82710319       0.04235877      -0.16191637      -0.04451343
H       -1.00000816       0.70509827       0.94033912       0.25883444       0.18186623      -0.11931727       0.10042291       0.06696554      -0.02384728
H       -0.55627377       1.21849782      -0.71915205      -0.44120399       0.03986781       0.11509125      -0.07923987       0.03373723      -0.05958649
H        2.27940594      -0.77891972      -0.52452769      -0.19243317       0.67984652       0.37221854       0.01373935       0.02223025       0.09596148
7
Lattice="13.0 0.0 0.0 0.0 9.0 0.0 0.0 0.0 9.0" Properties=species:S:1:pos:R:3:momenta:R:3:forces:R:3 EPS_SCF=1e-06 energy=-671.0440756122258 units=gap_units Integrated_spin_density=1.924e-05 opt_dir=/home/tks32/dft_pbe/apr_8_opt_fragments_subset/singlepoint_5_CH3OH time=80.0 free_energy=-671.0440756122258 cutoff=8.0 nneightol=1.2 pbc="T T T"
C       -0.66680007       0.34041633      -0.04647524      -0.31755189       0.20554123      -0.72739919      -0.04669138       0.03117879       0.01186342
O        0.62414876      -0.36633368       0.03135109       0.81008310      -0.91349911      -1.00947518       0.12527221       0.06092609      -0.14007318
H       -1.44826484      -0.30479819      -0.49914112      -0.18886903       0.28104581       0.54177865      -0.10445314       0.01662638       0.10642362
H        0.81102180      -0.80811634       0.88342927       0.07114053      -0.47466848       0.82710319      -0.08899736      -0.07678999      -0.13419337
H       -1.02857969       0.68595435       0.93463420       0.25883444       0.18186623      -0.11931727       0.02789979       0.03654368       0.02904718
H       -0.50765785       1.22147568      -0.70528199      -0.44120399       0.03986781       0.11509125      -0.08563110      -0.03012590      -0.02557180
H        2.21613189      -0.76859818      -0.59851622      -0.19243317       0.67984652       0.37221854       0.17260098      -0.03835905       0.15250413
7
Lattice="13.0 0.0 0.0 0.0 9.0 0.0 0.0 0.0 9.0" Properties=species:S:1:pos:R:3:momenta:R:3:forces:R:3 EPS_SCF=1e-06 energy=-671.022091116483 units=gap_units Integrated_spin_density=1.924e-05 opt_dir=/home/tks32/dft_pbe/apr_8_opt_fragments_subset/singlepoint_5_CH3OH time=80.0 free_energy=-671.022091116483 cutoff=8.0 nneightol=1.2 pbc="T T T"
C       -0.66703053       0.34245003      -0.05237909      -0.31755189       0.20554123      -0.72739919      -0.01173217      -0.10458135       0.24479963
O        0.63972526      -0.38481180       0.03742798       0.81008310      -0.91349911      -1.00947518      -0.32348703       0.39325719      -0.29325527
H       -1.44237533      -0.30899418      -0.50987052      -0.18886903       0.28104581       0.54177865      -0.04994594       0.06747517       0.13423358
H        0.81650324      -0.80333754       0.89889843       0.07114053      -0.47466848       0.82710319      -0.03358647      -0.14654661      -0.01095788
H       -1.02894024       0.68694485       0.93307460       0.25883444       0.18186623      -0.11931727       0.02124870      -0.04273460      -0.05597529
H       -0.50635249       1.22822774      -0.70075377      -0.44120399       0.03986781       0.11509125       0.02358265      -0.05145494      -0.11037381
H        2.18847009      -0.76047911      -0.60639765      -0.19243317       0.67984652       0.37221854       0.37392026      -0.11541487       0.09152904
7
Lattice="13.0 0.0 0.0 0.0 9.0 0.0 0.0 0.0 9.0" Properties=species:S:1:pos:R:3:momenta:R:3:forces:R:3 EPS_SCF=1e-06 energy=-670.9492184508367 units=gap_units Integrated_spin_density=1.924e-05 opt_dir=/home/tks32/dft_pbe/apr_8_opt_fragments_subset/singlepoint_5_CH3OH time=80.0 free_energy=-670.9492184508367 cutoff=8.0 nneightol=1.2 pbc="T T T"
C       -0.67943484       0.34739736      -0.05554076      -0.31755189       0.20554123      -0.72739919       0.38337142      -0.21036967       0.15232524
O        0.68442430      -0.41043111       0.02804704       0.81008310      -0.91349911      -1.00947518      -1.19371353       0.66616112       0.18708416
H       -1.44343543      -0.31398323      -0.52030857      -0.18886903       0.28104581       0.54177865       0.06697101       0.11424898       0.22132944
H        0.81380642      -0.80020495       0.91798346       0.07114053      -0.47466848       0.82710319       0.14414972      -0.11263166      -0.34675092
H       -1.02997886       0.69285694       0.93607487       0.25883444       0.18186623      -0.11931727       0.03997577      -0.16409708      -0.14493797
H       -0.50858180       1.23688546      -0.69708155      -0.44120399       0.03986781       0.11509125       0.07514112      -0.13697398      -0.11604488
H        2.16320020      -0.75252047      -0.60917449      -0.19243317       0.67984652       0.37221854       0.48410449      -0.15633770       0.04699493
7
Lattice="13.0 0.0 0.0 0.0 9.0 0.0 0.0 0.0 9.0" Properties=species:S:1:pos:R:3:momenta:R:3:forces:R:3:map_shift:I:3:n_neighb:I:1:force:R:3:local_energy:R:1:gap_var:R:1:gap_variance_gradient:R:3 EPS_SCF=1e-06 energy=-670.8861457844155 units=gap_units Integrated_spin_density=1.924e-05 opt_dir=/home/tks32/dft_pbe/apr_8_opt_fragments_subset/singlepoint_5_CH3OH time=80.0 free_energy=-670.37409561 cutoff=8.0 nneightol=1.2 pbc="T T T"
C       -0.68330204       0.35536426      -0.06575381      -0.31755189       0.20554123      -0.72739919      -0.37701151      -1.48201607       1.48739457        0        0        0       14       0.38672020      -0.79668979       1.02130473    -154.85775678       0.00448875      -0.00544893       0.00086698       0.00233657
O        0.69993763      -0.42404516       0.03926088       0.81008310      -0.91349911      -1.00947518       2.66601628       3.35327239       1.34106738        0        0        0       12      -1.55133336       1.36140503      -1.12138439    -436.49689155       0.00909530       0.01672761       0.00191792      -0.01300883
H       -1.44480857      -0.31570513      -0.52236328      -0.18886903       0.28104581       0.54177865       0.43192971       0.31270212      -1.29995863        0        0        0       11       0.13731432       0.17218991       0.20547067     -16.13131263       0.00408841      -0.00631119       0.00292362       0.00265222
H        0.81094700      -0.79433733       0.91024323       0.07114053      -0.47466848       0.82710319      -2.58442198      -2.02183246      -1.12731295        0        0        0       14       0.28594222      -0.58676237       0.77402327     -15.66993945       0.00522586       0.00400979       0.00048895      -0.00783020
H       -1.03128292       0.69541028       0.94128761       0.25883444       0.18186623      -0.11931727       0.83166955       0.97827468       0.37404479        0        0        0       15       0.13040586      -0.25533422      -0.52127414     -15.83183779       0.00443904       0.00343938      -0.00249757      -0.00363565
H       -0.51064710       1.23427576      -0.69250141      -0.44120399       0.03986781       0.11509125      -1.23448496      -0.25401126      -0.60014721        0        0        0       14       0.20652967       0.26096981      -0.45801438     -16.09757688       0.00432027      -0.00798827       0.00220023       0.00206219
H        2.15915599      -0.75096269      -0.61017323      -0.19243317       0.67984652       0.37221854       0.26630290      -0.88638941      -0.17508795        0        0        0       12       0.40442109      -0.15577837       0.09987423     -15.80083070       0.01448637      -0.00442839      -0.00590012       0.01742371
7
Lattice="13.0 0.0 0.0 0.0 9.0 0.0 0.0 0.0 9.0" Properties=species:S:1:pos:R:3:momenta:R:3:forces:R:3:map_shift:I:3:n_neighb:I:1:force:R:3:local_energy:R:1:gap_var:R:1:gap_variance_gradient:R:3 EPS_SCF=1e-06 energy=-670.8119460359627 units=gap_units Integrated_spin_density=1.924e-05 opt_dir=/home/tks32/dft_pbe/apr_8_opt_fragments_subset/singlepoint_5_CH3OH time=83.0 free_energy=-670.45035893 cutoff=8.0 nneightol=1.2 pbc="T T T"
C       -0.67479512       0.39316997      -0.05966441      -0.54311101       0.50908883      -0.05588461      -1.01975530       2.10630147       1.44607378        0        0        0       14      -0.34452366      -1.09109650       0.86214699    -154.75208278       0.00458602      -0.00585249       0.00321184       0.00217326
O        0.76515999      -0.37571886       0.06003344       1.42816830      -0.41606403      -0.61207837       0.98752792       0.47135353       0.50181199        0        0        0       14      -0.73211945       1.19292250      -0.64690252    -436.47993460       0.00947722      -0.01358613       0.00608386      -0.00432726
H       -1.42155497      -0.32888929      -0.48563924       0.14294341       0.27707057      -0.15415666       1.38368349      -0.32981442      -2.58627126        0        0        0       11       0.35457677       0.45351139       0.20942644     -16.06795268       0.00410754      -0.00602763       0.00230677       0.00215408
H        0.79607407      -0.97599636       0.81510688      -0.54232151      -0.94835109       0.38912829      -1.04727118      -0.87699823      -0.81448158        0        0        0       15       0.07685576      -0.57567934       0.47795893     -15.74327076       0.00567357       0.01105588       0.00111397      -0.00964796
H       -0.99334733       0.73758345       0.95388511       0.17600293       0.11170834      -0.03221774      -0.96613903      -1.39333438       0.25604206        0        0        0       15      -0.01602336      -0.06400309      -0.38901915     -15.91834370       0.00451545      -0.00241546       0.00031285      -0.00017858
H       -0.52026129       1.24413215      -0.72535064      -0.59333054      -0.01403465       0.04691796       0.36297916      -0.04741164       0.86942646        0        0        0       15       0.18625969       0.36769575      -0.43255921     -16.11247280       0.00473034      -0.00814888       0.00325229       0.00142266
H        2.04872465      -0.69428107      -0.55837114      -0.06835159       0.48058202       0.41829113       0.29897494       0.06990366       0.32739855        0        0        0       12       0.47497423      -0.28335071      -0.08105147     -15.73788870       0.01237647       0.02497471      -0.01628158       0.00840380
7
Lattice="13.0 0.0 0.0 0.0 9.0 0.0 0.0 0.0 9.0" Properties=species:S:1:pos:R:3:momenta:R:3:forces:R:3:map_shift:I:3:n_neighb:I:1:force:R:3:local_energy:R:1:gap_var:R:1:gap_variance_gradient:R:3 EPS_SCF=1e-06 energy=-670.8325794298269 units=gap_units Integrated_spin_density=1.924e-05 opt_dir=/home/tks32/dft_pbe/apr_8_opt_fragments_subset/singlepoint_5_CH3OH time=86.0 free_energy=-670.83335462 cutoff=8.0 nneightol=1.2 pbc="T T T"
C       -0.67772653       0.42926841      -0.05128455      -0.96104763       1.38937869       0.18357639      -0.59048695       2.35854852      -2.08513368        0        0        0       13      -0.90837138      -1.06686627       0.51812373    -154.65549574       0.00470085      -0.00041431       0.00290974       0.00056328
O        0.82693078      -0.34520041       0.10580668       1.39323556      -0.90182960      -1.25872134      -0.13863532      -2.37227564      -1.57447944        0        0        0       14       1.14738346       0.64226950      -1.01935932    -436.65831000       0.00841549      -0.02727969       0.00634468       0.00161653
H       -1.40241049      -0.33377185      -0.44846238       0.35854273       0.21658302      -0.43873678      -0.68919976      -0.20649051       1.53061587        0        0        0       11       0.43632183       0.58244741       0.20314176     -15.99544262       0.00421168      -0.00217164       0.00113400       0.00143363
H        0.79612126      -1.12508485       0.68771983      -0.38058144      -0.97587983       0.50656774       0.75860303       0.29594694       1.15306966        0        0        0       14      -0.10187142      -0.58186781       0.43088581     -15.78719900       0.00641707       0.01330090       0.00237869      -0.00816911
H       -0.96683188       0.77638207       0.96369997      -0.16903296      -0.32354872       0.02695121      -0.77470719      -1.13938312      -0.26929338        0        0        0       15      -0.02311027       0.00841182      -0.25992930     -15.98573738       0.00449018      -0.00158262       0.00024943       0.00024546
H       -0.53148332       1.24998637      -0.75719167      -0.23159787       0.03822920       0.39962439       1.48915824       0.16723028       1.01859774        0        0        0       15       0.10132226       0.42729903      -0.30773678     -16.13060179       0.00507519      -0.00774824       0.00429130       0.00079988
H        1.95540017      -0.65157974      -0.50028788      -0.00951839       0.55706725       0.58073838      -0.05473205       0.89642353       0.22662323        0        0        0       12      -0.65167449      -0.01169368       0.43487408     -15.61979289       0.00909723       0.02589561      -0.01730784       0.00351033
7
Lattice="13.0 0.0 0.0 0.0 9.0 0.0 0.0 0.0 9.0" Properties=species:S:1:pos:R:3:momenta:R:3:forces:R:3:map_shift:I:3:n_neighb:I:1:force:R:3:local_energy:R:1:gap_var:R:1:gap_variance_gradient:R:3 EPS_SCF=1e-06 energy=-671.0131659437645 units=gap_units Integrated_spin_density=1.924e-05 opt_dir=/home/tks32/dft_pbe/apr_8_opt_fragments_subset/singlepoint_5_CH3OH time=89.0 free_energy=-670.5287924 cutoff=8.0 nneightol=1.2 pbc="T T T"
C       -0.68876613       0.45924970      -0.04398438      -0.82848911       1.88230473      -0.46945715      -1.61631200      -0.79010505      -0.63965539        0        0        0       13      -1.17421724      -0.74471018       0.13032210    -154.58015670       0.00479754       0.00335909       0.00166012       0.00006562
O        0.88056937      -0.33389619       0.16694339       1.48828624      -1.44892147      -1.11960669       2.37180572       1.78223723       1.82385904        0        0        0       13       2.26122602       0.01131386      -1.26710578    -436.85509026       0.00724394      -0.02412047       0.00393391       0.00121889
H       -1.38861640      -0.33395928      -0.41806924      -0.06299751       0.08218233       0.46099558      -0.81148485      -0.09239484       2.54349017        0        0        0       12       0.33793979       0.59149056       0.18897473     -15.93175342       0.00435398      -0.00118343       0.00037772       0.00064739
H        0.80018566      -1.23313548       0.55375773      -0.40899187      -0.64994277       0.51167641      -0.73136758       1.45115693      -0.94782898        0        0        0       14       0.07696813      -0.49178975       0.19892845     -15.83156218       0.00665451       0.01076672       0.00182818      -0.00373112
H       -0.94979936       0.80864049       0.97193040      -0.02048658      -0.13334168      -0.19736485       1.86974231       1.79583909      -0.85540154        0        0        0       15      -0.05111899       0.06315686      -0.15831073     -16.02066527       0.00459347      -0.00005526       0.00014852       0.00015580
H       -0.53551855       1.25424840      -0.78316842       0.00938589       0.06370902       0.39548263      -0.08011970      -0.22124098      -0.91782855        0        0        0       15       0.00103078       0.39809801      -0.15746909     -16.14929177       0.00522031      -0.00635445       0.00429540       0.00031109
H        1.88194540      -0.62114763      -0.44740948      -0.17670706       0.20400984       0.41827408      -1.00226390      -3.92549239      -1.00663476        0        0        0       12      -1.45182850       0.17244065       1.06466030     -15.64464634       0.00700185       0.01758781      -0.01224385       0.00133233
7
Lattice="13.0 0.0 0.0 0.0 9.0 0.0 0.0 0.0 9.0" Properties=species:S:1:pos:R:3:momenta:R:3:forces:R:3:map_shift:I:3:n_neighb:I:1:force:R:3:local_energy:R:1:gap_var:R:1:gap_variance_gradient:R:3 EPS_SCF=1e-06 energy=-671.1916554360191 units=gap_units Integrated_spin_density=1.924e-05 opt_dir=/home/tks32/dft_pbe/apr_8_opt_fragments_subset/singlepoint_5_CH3OH time=92.0 free_energy=-670.75047499 cutoff=8.0 nneightol=1.2 pbc="T T T"
C       -0.70523761       0.48349801      -0.03961156      -0.79499824       1.78321879       0.21801009      -0.22062781       0.64177618       3.68954648        0        0        0       13      -1.04387680      -0.39358578      -0.08786692    -154.51194247       0.00485947       0.00380606       0.00078153       0.00021251
O        0.92588037      -0.34298992       0.23413831       1.70194357      -1.22844295      -0.44731579       1.11257656      -1.88573486       2.42556436        0        0        0       12       2.29773312      -0.51135132      -1.43847417    -436.98624147       0.00644657      -0.01719999       0.00202607      -0.00093064
H       -1.38225818      -0.33126616      -0.39670894       0.09124749       0.06157029       0.42054349       1.14319373      -0.22677020      -1.89086858        0        0        0       11       0.18537041       0.55974112       0.15345974     -15.88262811       0.00447073      -0.00084366      -0.00018029       0.00019469
H        0.79939912      -1.30657867       0.42915283      -0.54657535      -0.09380397       0.14309043      -0.47506696       1.55141852      -1.63821080        0        0        0       14       0.16177722      -0.42488394       0.23795735     -15.87706038       0.00639286       0.00845730       0.00058524      -0.00145895
H       -0.93911890       0.83567282       0.97901778       0.39756816       0.22492281      -0.40063982      -0.15151999       0.03750267      -0.23348153        0        0        0       14      -0.08443863       0.10879839      -0.11352890     -16.02995857       0.00484692       0.00063600       0.00071376       0.00031087
H       -0.52823507       1.25949844      -0.80088252      -0.30503036      -0.00535556      -0.03987102      -0.90447720      -0.26081523      -1.51349177        0        0        0       15      -0.07795725       0.28549208      -0.01646407     -16.16018042       0.00518524      -0.00452108       0.00346089       0.00008697
H        1.82957027      -0.59783452      -0.40510590      -0.54415527      -0.74210940       0.10618261      -0.50407833       0.14262292      -0.83905816        0        0        0       13      -1.43860807       0.37578945       1.26491697     -15.74364403       0.00598672       0.00966538      -0.00738721       0.00158455
7
Lattice="13.0 0.0 0.0 0.0 9.0 0.0 0.0 0.0 9.0" Properties=species:S:1:pos:R:3:momenta:R:3:forces:R:3:map_shift:I:3:n_neighb:I:1:force:R:3:local_energy:R:1:gap_var:R:1:gap_variance_gradient:R:3 EPS_SCF=1e-06 energy=-671.2841362776927 units=gap_units Integrated_spin_density=1.924e-05 opt_dir=/home/tks32/dft_pbe/apr_8_opt_fragments_subset/singlepoint_5_CH3OH time=95.0 free_energy=-670.54044596 cutoff=8.0 nneightol=1.2 pbc="T T T"
C       -0.72495839       0.50495247      -0.03809570      -0.96891193       1.89098273       0.92812650       0.53392282       0.45053187      -0.60982814        0        0        0       13      -0.59926011      -0.19416330      -0.09979440    -154.42492227       0.00493003       0.00252767       0.00049211       0.00016793
O        0.96417372      -0.37482227       0.30020401       1.92148501      -1.95490099       0.13110114      -1.56649887      -2.49428641       1.58437000        0        0        0       12       1.64680318      -0.76027596      -1.73141193    -437.06749324       0.00594373      -0.01178620       0.00121249      -0.00219049
H       -1.38513737      -0.32318781      -0.38234460       0.40141705       0.06509588      -0.24601051       0.45110411       0.17698843      -1.23181017        0        0        0       11       0.07025352       0.51356954       0.10278725     -15.85092708       0.00454496      -0.00012708      -0.00052607       0.00011668
H        0.79113300      -1.35855525       0.31908994      -0.66690856       0.30451974      -0.40249640       0.42883444       0.63382941      -0.72284720        0        0        0       14       0.27754855      -0.28099222       0.35667886     -15.91245149       0.00607617       0.00736766       0.00013485      -0.00120859
H       -0.93116832       0.86016427       0.98382971       0.00266466      -0.03684773      -0.24807636      -2.19044010      -1.50264176       0.76358239        0        0        0       14      -0.10223403       0.12991134      -0.07569232     -16.02692164       0.00514241       0.00092227       0.00123660       0.00046601
H       -0.51030630       1.26648423      -0.80988491      -0.22583135      -0.01910424      -0.10381681       1.71348880       0.48002207       0.94183160        0        0        0       15      -0.12567883       0.13537359       0.08579573     -16.15958685       0.00504511      -0.00295932       0.00237424       0.00017972
H        1.79626366      -0.57503564      -0.37279846      -0.46391488      -0.24974539      -0.05882756       0.62958880       2.25555639      -0.72529848        0        0        0       13      -1.16743228       0.45657701       1.36163681     -15.84183369       0.00549017       0.00405499      -0.00492422       0.00246874
7
Lattice="13.0 0.0 0.0 0.0 9.0 0.0 0.0 0.0 9.0" Properties=species:S:1:pos:R:3:momenta:R:3:forces:R:3:map_shift:I:3:n_neighb:I:1:force:R:3:local_energy:R:1:gap_var:R:1:gap_variance_gradient:R:3 EPS_SCF=1e-06 energy=-671.3050558200399 units=gap_units Integrated_spin_density=1.924e-05 opt_dir=/home/tks32/dft_pbe/apr_8_opt_fragments_subset/singlepoint_5_CH3OH time=98.0 free_energy=-670.39683016 cutoff=8.0 nneightol=1.2 pbc="T T T"
C       -0.74640735       0.52691445      -0.03842732      -0.95739262       1.74449859      -0.02655376       0.64759664      -0.87750954      -4.05400741        0        0        0       13      -0.19660060      -0.08021507      -0.03651339    -154.30627190       0.00505075       0.00102108       0.00051526      -0.00011876