9
EPS_SCF=0.00000100 energy=-1401.8498565490638 units=gap_units Integrated_spin_density=0.00006551 opt_dir=/home/tks32/dft_pbe/apr_8_opt_fragments_subset/singlepoint_1_CO2 time=0.00000000 free_energy=-1401.84985654 cutoff=8.00000000 nneightol=1.20000000 pbc="T T T" Lattice="13.00000000       0.00000000       0.00000000       0.00000000       9.00000000       0.00000000       0.00000000       0.00000000       9.00000000" Properties=species:S:1:pos:R:3:momenta:R:3:forces:R:3:Z:I:1:map_shift:I:3:n_neighb:I:1:force:R:3:local_energy:R:1:gap_var:R:1:gap_variance_gradient:R:3
C              -2.66661630      0.00003508     -0.00008450      5.45409721      0.81308744     -0.21939016     -0.71616738      0.08149990      0.07809224       6       0       0       0      12     -0.71616740      0.08149946      0.07809209   -152.36801565      0.00469919      0.00753098     -0.00155187     -0.00082503
O              -2.79916745     -1.12388035     -0.32607284      6.91856637      1.60105312      0.69227000     -0.00977911      0.19278933      0.11863095       8       0       0       0      14     -0.00977908      0.19278975      0.11863108   -437.72026183      0.00376144     -0.00437837      0.00314623     -0.00002105
O              -2.53420761      1.12385113      0.32614266      6.44529771     -2.41414056     -0.47287984      0.60777930     -0.29930868     -0.09183242       8       0       0       0      14      0.60777928     -0.29930867     -0.09183241   -438.43012828      0.00381012      0.00944956     -0.00857660     -0.00114853
C               1.85829380      0.32653053      0.25008286     -5.69597901      0.88593916      0.41407752      0.57584133      0.68705914      0.43457040       6       0       0       0      15      0.57584140      0.68705888      0.43457017   -153.99792902      0.00306717      0.00582900     -0.00082158     -0.00063726
C               0.80837003     -0.32653266     -0.25007829     -6.07650281     -1.32504139      0.17494715     -0.90079645     -1.10620546     -0.51939980       6       0       0       0      14     -0.90079627     -1.10620558     -0.51939988   -153.07284990      0.00666219     -0.01240857      0.00762508      0.00899194
H               1.73876223      1.17877639      0.91904262     -0.67682574     -0.05175688     -0.30347750     -0.24543084      0.30760741      0.29124826       1       0       0       0      19     -0.24543082      0.30760755      0.29124838    -16.62958607      0.00316126     -0.00051773     -0.00123813     -0.00239676
H               2.88157783      0.03641793      0.01166621     -0.20088037     -0.43346916     -0.14053191      0.55674304      0.06718708     -0.00289936       1       0       0       0      15      0.55674287      0.06718716     -0.00289928    -16.58860884      0.00304409     -0.00057028      0.00009126     -0.00015559
H              -0.21491357     -0.03641919     -0.01166099     -0.11295227      0.37406457      0.09108301      0.27576887      0.09625598     -0.16517844       1       0       0       0      14      0.27576879      0.09625601     -0.16517842    -16.04784753      0.01509267     -0.00624351      0.00130748     -0.00380807
H               0.92790105     -1.17877889     -0.91903774     -0.29107960      0.55026370     -0.23609827     -0.14395874     -0.02688471     -0.14323184       1       0       0       0      19     -0.14395877     -0.02688457     -0.14323174    -16.99462942      0.00546950      0.00130894      0.00001814      0.00000035
9
EPS_SCF=0.00000100 energy=-1401.8520616251490 units=gap_units Integrated_spin_density=0.00006551 opt_dir=/home/tks32/dft_pbe/apr_8_opt_fragments_subset/singlepoint_1_CO2 time=1.00000000 free_energy=-1401.80709005 cutoff=8.00000000 nneightol=1.20000000 pbc="T T T" Lattice="13.00000000       0.00000000       0.00000000       0.00000000       9.00000000       0.00000000       0.00000000       0.00000000       9.00000000" Properties=species:S:1:pos:R:3:momenta:R:3:forces:R:3:Z:I:1:map_shift:I:3:n_neighb:I:1:force:R:3:local_energy:R:1:gap_var:R:1:gap_variance_gradient:R:3
C              -2.61096346      0.00076752     -0.00077699      4.33379230      0.85202192     -0.22813873     -0.81150355     -1.42441597     -0.30617401       6       0       0       0      11     -0.75268786     -1.18400668     -0.22963831   -152.50854540      0.00493081      0.00710326      0.00050595     -0.00038397
O              -2.74233001     -1.12320356     -0.31235971      5.68534428      1.50966954      0.73141744      0.19302939     -0.43047360     -0.13568442       8       0       0       0      13      0.18251273     -0.45074081     -0.13422211   -437.71754105      0.00368376     -0.00219003      0.00570142      0.00089679
O              -2.48247187      1.10777758      0.31688683      5.35278514     -2.29325472     -0.34703573      1.03688060      1.78035087      0.48871193       8       0       0       0      14      1.01053833      1.55593523      0.41330657   -438.35167050      0.00438957      0.01545209     -0.01329658     -0.00235679
C               1.82670061      0.32913751      0.25854889     -6.49319712      0.97275051      0.38506449      1.63794139     -0.77819499     -0.70970603       6       0       0       0      13      1.15996051     -0.17529826     -0.24364580   -154.06814500      0.00309708      0.00299062     -0.00017030     -0.00048028
C               0.77049460     -0.34371177     -0.23876823     -7.19264930     -1.48450644      0.09409432     -0.56899382     -0.25673259     -0.01772384       6       0       0       0      14     -0.70922987     -0.56963320     -0.28963906   -153.09060041      0.00663506     -0.01622315      0.00844362      0.00859694
H               1.68115737      1.18583599      0.90082147     -0.79598878      0.03390291     -0.28193947     -0.06592477      0.98773189      0.86949274       1       0       0       0      19      0.00527499      0.52668066      0.51221464    -16.64439274      0.00343206     -0.00258927     -0.00103485     -0.00239361
H               2.86589105     -0.00388123      0.01300961     -0.31185103     -0.41557069     -0.08813917     -0.65869152      0.71712952      0.49794926       1       0       0       0      15     -0.27640436      0.58264582      0.38871596    -16.60375359      0.00302688      0.00032136     -0.00070157     -0.00079110
H              -0.22179578     -0.00432308      0.00368145     -0.24178677      0.34712648      0.04521078     -0.55752186      0.19174938     -0.04621524       1       0       0       0      14     -0.36424673      0.13931767     -0.09328149    -15.86479908      0.01545700     -0.00801850     -0.00042606     -0.00340717
H               0.91331747     -1.14839896     -0.94104333     -0.33644872      0.47786049     -0.31053392     -0.20521585     -0.78714452     -0.64065039       1       0       0       0      19     -0.25571773     -0.42490042     -0.32381039    -17.00261385      0.00569518      0.00315361      0.00097837      0.00031918
9
EPS_SCF=0.00000100 energy=-1401.8000370497043 units=gap_units Integrated_spin_density=0.00006551 opt_dir=/home/tks32/dft_pbe/apr_8_opt_fragments_subset/singlepoint_1_CO2 time=2.00000000 free_energy=-1401.67462158 cutoff=8.00000000 nneightol=1.20000000 pbc="T T T" Lattice="13.00000000       0.00000000       0.00000000       0.00000000       9.00000000       0.00000000       0.00000000       0.00000000       9.00000000" Properties=species:S:1:pos:R:3:momenta:R:3:forces:R:3:Z:I:1:map_shift:I:3:n_neighb:I:1:force:R:3:local_energy:R:1:gap_var:R:1:gap_variance_gradient:R:3
C              -2.55506955      0.00069459     -0.00111122      4.18961870      0.58808281     -0.21318432     -0.79890505     -2.84338816     -0.68243680       6       0       0       0      11     -0.69648795     -2.18292713     -0.45510943   -152.66961012      0.00524284      0.00582515      0.00343268      0.00061310
O              -2.68537848     -1.12201616     -0.29832825      5.83658565      1.45276544      0.57954698      0.20674923     -1.14170949     -0.40303280       8       0       0       0      13      0.18703174     -1.23152918     -0.40105898   -437.70179212      0.00361070      0.00166109      0.00894957      0.00176420
O              -2.42884653      1.09337092      0.30880663      5.41636925     -1.94633903     -0.19699841      1.26652863      3.89976846      1.10538090       8       0       0       0      14      1.19793401      3.32314312      0.88295872   -438.20720779      0.00513379      0.01731326     -0.01737247     -0.00354429
C               1.79674178      0.33050571      0.26594963     -6.24674736      0.78628328      0.40527052      2.06040657     -1.91621692     -1.48368732       6       0       0       0      13      1.42188825     -0.95620943     -0.77709847   -154.12798220      0.00328157     -0.00292515      0.00042792     -0.00064618
C               0.73345560     -0.36192066     -0.22820262     -7.31324149     -1.43031665     -0.05102324      0.01704591      0.38986945      0.41079465       6       0       0       0      14     -0.31881021     -0.11667013     -0.10886369   -153.14741896      0.00674163     -0.01756920      0.00924411      0.00790373
H               1.62471799      1.19515065      0.88466519     -0.85381452      0.13773793     -0.15637603      0.06415122      1.25600432      1.09991196       1       0       0       0      19      0.16953550      0.59207810      0.60103852    -16.66870609      0.00376360     -0.00227886     -0.00052359     -0.00188562
H               2.84659824     -0.04076066      0.01686440     -0.38501136     -0.32317112     -0.01488909     -1.43157696      1.24656717      0.84923773       1       0       0       0      15     -0.84667608      1.01354969      0.67735665    -16.59409863      0.00303689      0.00099099     -0.00145155     -0.00136705
H              -0.23140523      0.02745477      0.01702050     -0.28824680      0.35728396      0.04430368     -1.18585879      0.31792362      0.06089582       1       0       0       0      14     -0.82166406      0.20505025     -0.02061356    -15.68305060      0.01583069     -0.00864843     -0.00319815     -0.00270463
H               0.89918619     -1.12247915     -0.96566427     -0.35551208      0.37767338     -0.39665010     -0.19854076     -1.20881845     -0.95706415       1       0       0       0      19     -0.29275119     -0.64648529     -0.39860975    -17.00017054      0.00590671      0.00563115      0.00049148     -0.00013326
9
EPS_SCF=0.00000100 energy=-1401.7284459813311 units=gap_units Integrated_spin_density=0.00006551 opt_dir=/home/tks32/dft_pbe/apr_8_opt_fragments_subset/singlepoint_1_CO2 time=3.00000000 free_energy=-1401.55056824 cutoff=8.00000000 nneightol=1.20000000 pbc="T T T" Lattice="13.00000000       0.00000000       0.00000000       0.00000000       9.00000000       0.00000000       0.00000000       0.00000000       9.00000000" Properties=species:S:1:pos:R:3:momenta:R:3:forces:R:3:Z:I:1:map_shift:I:3:n_neighb:I:1:force:R:3:local_energy:R:1:gap_var:R:1:gap_variance_gradient:R:3
C              -2.49881311     -0.00021321     -0.00054026      4.07138753      0.41386169     -0.24725092     -0.72950985     -3.96429592     -1.00782828       6       0       0       0      11     -0.57135189     -2.89808457     -0.61979165   -152.86420687      0.00562351      0.00657165      0.00727812      0.00224608
O              -2.62804011     -1.12074986     -0.28436506      5.81442161      1.19913423      0.56414338     -0.20010234     -2.03571284     -0.69468309       8       0       0       0      13     -0.19728315     -2.09760493     -0.65558057   -437.67132513      0.00358795      0.00635602      0.01241530      0.00238164
O              -2.37219262      1.08176621      0.30344819      5.46339130     -1.55894459     -0.17210227      1.21590921      5.90540747      1.70951904       8       0       0       0      14      1.09504871      4.90208226      1.29245001   -438.04345586      0.00583780      0.01360341     -0.01997506     -0.00453966
C               1.76949737      0.32980438      0.27134966     -5.92234737      0.68982411      0.20405339      1.60892804     -2.52755940     -1.84248447       6       0       0       0      13      1.06976647     -1.49850904     -1.09292644   -154.17643633      0.00365784     -0.00719249      0.00071375     -0.00105623
C               0.69809934     -0.38157851     -0.21931969     -7.30574219     -1.44656198      0.13345850      1.30949159      0.71403671      0.47981591       6       0       0       0      14      0.65536834      0.28025137     -0.03719624   -153.20139437      0.00696744     -0.01648017      0.00937563      0.00679007
H               1.57092445      1.20810004      0.87152589     -0.84230628      0.21153957     -0.06415624      0.30427320      1.00629956      0.94965096       1       0       0       0      19      0.36976070      0.42364750      0.51638853    -16.69848624      0.00410517     -0.00286983     -0.00035146     -0.00150465
H               2.82092692     -0.07172378      0.02585050     -0.51883287     -0.21330493      0.04821430     -1.73761583      1.57895576      1.04365547       1       0       0       0      15     -1.07139633      1.29436282      0.83432287    -16.56877838      0.00305734      0.00130955     -0.00201841     -0.00182254
H              -0.24568668      0.05894197      0.02604413     -0.40903545      0.41494358      0.02540587     -1.49353444      0.40290776      0.14159045       1       0       0       0      14     -0.98249323      0.21835485      0.02721831    -15.51260359      0.01603793     -0.00922214     -0.00628142     -0.00118552
H               0.88528443     -1.10434724     -0.99399335     -0.35093626      0.28950832     -0.49176601     -0.27783958     -1.08003911     -0.77923599       1       0       0       0      19     -0.36741962     -0.62450025     -0.26488481    -16.99175921      0.00607841      0.00792400     -0.00115645     -0.00130919
9
EPS_SCF=0.00000100 energy=-1401.6379476357470 units=gap_units Integrated_spin_density=0.00006551 opt_dir=/home/tks32/dft_pbe/apr_8_opt_fragments_subset/singlepoint_1_CO2 time=4.00000000 free_energy=-1401.44746234 cutoff=8.00000000 nneightol=1.20000000 pbc="T T T" Lattice="13.00000000       0.00000000       0.00000000       0.00000000       9.00000000       0.00000000       0.00000000       0.00000000       9.00000000" Properties=species:S:1:pos:R:3:momenta:R:3:forces:R:3:Z:I:1:map_shift:I:3:n_neighb:I:1:force:R:3:local_energy:R:1:gap_var:R:1:gap_variance_gradient:R:3
C              -2.44248595     -0.00258755      0.00070733      3.83401644      0.10215286     -0.30272091     -0.75647870     -4.47581160     -1.19155721       6       0       0       0      11     -0.53769203     -2.98795436     -0.64452168   -153.08008322      0.00604505      0.00713416      0.01013563      0.00335758
O              -2.57035748     -1.11983233     -0.27089875      5.85595134      1.02640977      0.45889368     -0.47036453     -2.92120069     -0.97914372       8       0       0       0      13     -0.44246393     -2.92486572     -0.88802938   -437.62773268      0.00362917      0.00942292      0.01512771      0.00255369
O              -2.31257806      1.07386808      0.30100672      5.57674072     -0.91675655      0.05513117      0.95230845      7.34604293      2.15065098       8       0       0       0      14      0.76284790      5.87570115      1.52150779   -437.91179293      0.00641521      0.00858847     -0.02035179     -0.00466202
C               1.74509157      0.32661330      0.27416189     -5.80104505      0.35788733     -0.01122505      0.43910267     -2.65851440     -1.84838987       6       0       0       0      13      0.18947411     -1.79365752     -1.21608489   -154.21259886      0.00408929     -0.00742332      0.00085001     -0.00154383
C               0.66497619     -0.40238107     -0.21232531     -7.08094126     -1.40037582      0.12574407      2.29954060      1.04792506      0.33780985       6       0       0       0      14      1.50925574      0.70830034     -0.04439640   -153.20813109      0.00722433     -0.01181192      0.00818352      0.00533057
H               1.52204895      1.22383059      0.86142293     -0.79038513      0.29900812      0.01256534      0.74239993      0.38161103      0.53951527       1       0       0       0      19      0.70610081      0.08237203      0.31718684    -16.72236582      0.00452914     -0.00455427      0.00026286     -0.00114264
H               2.78792532     -0.09470568      0.04086485     -0.68298578     -0.06848502      0.13455189     -1.59750662      1.69495291      1.08629721       1       0       0       0      15     -0.94626222      1.39379531      0.86151202    -16.53847875      0.00307352      0.00119040     -0.00228147     -0.00208539
H              -0.26499073      0.08987112      0.03064888     -0.54448456      0.42301594      0.03037325     -1.16525455      0.24058734      0.11549849       1       0       0       0      14     -0.75260672      0.07073164      0.02084212    -15.35905565      0.01605758     -0.01224540     -0.00842635      0.00125694
H               0.87037020     -1.09467644     -1.02558854     -0.36686672      0.17714336     -0.50331344     -0.44374724     -0.65559258     -0.21068101       1       0       0       0      19     -0.48865365     -0.42442287      0.07198358    -16.97770864      0.00621488      0.00969897     -0.00350014     -0.00306490
9
EPS_SCF=0.00000100 energy=-1401.5206392919010 units=gap_units Integrated_spin_density=0.00006551 opt_dir=/home/tks32/dft_pbe/apr_8_opt_fragments_subset/singlepoint_1_CO2 time=5.00000000 free_energy=-1401.34185730 cutoff=8.00000000 nneightol=1.20000000 pbc="T T T" Lattice="13.00000000       0.00000000       0.00000000       0.00000000       9.00000000       0.00000000       0.00000000       0.00000000       9.00000000" Properties=species:S:1:pos:R:3:momenta:R:3:forces:R:3:Z:I:1:map_shift:I:3:n_neighb:I:1:force:R:3:local_energy:R:1:gap_var:R:1:gap_variance_gradient:R:3
C              -2.38681162     -0.00695943      0.00181078      3.65034013     -0.26394012     -0.45399097     -0.85835256     -3.84630863     -1.04632120       6       0       0       0      11     -0.61699864     -2.20860901     -0.45678247   -153.29358031      0.00643244      0.00884474      0.01103549      0.00349391
O              -2.51286286     -1.11982581     -0.25857776      5.67886877      0.51872535      0.32313584     -0.58112975     -3.74934489     -1.23641473       8       0       0       0      13     -0.56631605     -3.70057729     -1.08452231   -437.57427080      0.00371550      0.01036589      0.01656846      0.00219456
O              -2.25131508      1.07016233      0.30047379      5.56681262      0.00639366      0.23174546      0.41707803      7.67174886      2.25093872       8       0       0       0      14      0.20906524      6.00528760      1.51528721   -437.82824488      0.00678644      0.00250483     -0.01925428     -0.00451344
C               1.72253873      0.32114973      0.27424066     -5.65370070      0.16709423     -0.13705955     -0.93536068     -2.28856532     -1.53465339       6       0       0       0      13     -0.83638531     -1.89188535     -1.19770358   -154.22854387      0.00443832     -0.00571859      0.00079640     -0.00211909
C               0.63414480     -0.42330811     -0.20666784     -6.65067701     -1.34894459      0.20491727      2.67646047      1.52320041      0.11226271       6       0       0       0      14      2.08475978      1.24819671     -0.09188832   -153.18090573      0.00735424     -0.00508306      0.00577921      0.00395038
H               1.48069232      1.23956186      0.85341868     -0.71443047      0.30197197      0.07206222      1.18893813     -0.40118918      0.02163459       1       0       0       0      19      1.02167700     -0.30708855      0.08434184    -16.73138473      0.00489820     -0.00243454      0.00166716     -0.00016943
H               2.74910542     -0.10825433      0.06098949     -0.81175678      0.09106857      0.19400007     -0.94097474      1.52892808      0.97588576       1       0       0       0      15     -0.49837021      1.29644430      0.77890323    -16.50669414      0.00308268      0.00069339     -0.00217200     -0.00211643
H              -0.28776419      0.11899855      0.03278928     -0.62076290      0.40360439      0.04915803     -0.34630828     -0.25048393     -0.04128985       1       0       0       0      14     -0.22130963     -0.27898018     -0.05042054    -15.22141289      0.01609112     -0.01986129     -0.00840798      0.00430581
H               0.85227248     -1.09152480     -1.05847708     -0.44469366      0.12402654     -0.48396837     -0.62035063     -0.18798540      0.49795738       1       0       0       0      19     -0.57612217     -0.16278823      0.50278494    -16.95560194      0.00633865      0.01068864     -0.00601246     -0.00502626
9
EPS_SCF=0.00000100 energy=-1401.3522359475089 units=gap_units Integrated_spin_density=0.00006551 opt_dir=/home/tks32/dft_pbe/apr_8_opt_fragments_subset/singlepoint_1_CO2 time=6.00000000 free_energy=-1401.15646345 cutoff=8.00000000 nneightol=1.20000000 pbc="T T T" Lattice="13.00000000       0.00000000       0.00000000       0.00000000       9.00000000       0.00000000       0.00000000       0.00000000       9.00000000" Properties=species:S:1:pos:R:3:momenta:R:3:forces:R:3:Z:I:1:map_shift:I:3:n_neighb:I:1:force:R:3:local_energy:R:1:gap_var:R:1:gap_variance_gradient:R:3
C              -2.33285000     -0.01285011      0.00243100      3.44040887     -0.73444560     -0.48257399     -1.08994558     -2.02998433     -0.53927024       6       0       0       0      11     -0.89187222     -0.79644825     -0.11521259   -153.47183579      0.00682597      0.01275407      0.01061388      0.00291731
O              -2.45642578     -1.12163170     -0.24849668      5.56433060      0.23507098      0.19688949     -0.58295557     -4.52071845     -1.45151581       8       0       0       0      13     -0.56865402     -4.30679123     -1.21582483   -437.52198873      0.00381092      0.01003667      0.01690259      0.00156666
O              -2.19054560      1.07049972      0.30132204      5.50466521      0.75119573      0.39936073     -0.36758255      6.83543406      1.98809730       8       0       0       0      15     -0.49134006      5.39507893      1.31796751   -437.77465815      0.00704193      0.00277904     -0.01899895     -0.00468370
C               1.69997142      0.31448433      0.27189852     -5.66227291      0.11548816     -0.25044162     -2.29327118     -1.69526041     -1.09123715       6       0       0       0      13     -1.58129252     -1.77549282     -1.04444722   -154.21890575      0.00466897     -0.00582963      0.00051150     -0.00287011
C               0.60519127     -0.44280970     -0.20197400     -6.33658310     -1.21289169      0.17536752      2.55437441      2.16332940     -0.02746076       6       0       0       0      15      2.28434943      1.75214638     -0.20475906   -153.14222448      0.00728498      0.00102682      0.00319074      0.00302064
H               1.44863663      1.25219490      0.84550846     -0.58998536      0.19816171      0.05981090      1.45894146     -0.98926402     -0.37595699       1       0       0       0      19      1.20914650     -0.60763144     -0.09731658    -16.72948014      0.00511638      0.00016583      0.00320187      0.00071460
H               2.70822126     -0.11232307      0.08537522     -0.82991461      0.16353986      0.27484889      0.24074476      1.05676726      0.71432274       1       0       0       0      15      0.18029628      1.02711034      0.62555059    -16.47334695      0.00309121      0.00003558     -0.00169500     -0.00195736
H              -0.31080544      0.14415172      0.03336496     -0.60736388      0.38767575      0.02541723      0.79495426     -0.97728598     -0.29820946       1       0       0       0      15      0.46735149     -0.74371411     -0.16253838    -15.09427834      0.01641405     -0.03101753     -0.00633241      0.00756283
H               0.82860623     -1.09171610     -1.08942953     -0.48328484      0.09620511     -0.39867914     -0.71526001      0.15698246      1.08123039       1       0       0       0      20     -0.60798488      0.05574219      0.89658056    -16.92551762      0.00648632      0.01004915     -0.00739422     -0.00627086
9
EPS_SCF=0.00000100 energy=-1401.1394308132449 units=gap_units Integrated_spin_density=0.00006551 opt_dir=/home/tks32/dft_pbe/apr_8_opt_fragments_subset/singlepoint_1_CO2 time=7.00000000 free_energy=-1400.86733605 cutoff=8.00000000 nneightol=1.20000000 pbc="T T T" Lattice="13.00000000       0.00000000       0.00000000       0.00000000       9.00000000       0.00000000       0.00000000       0.00000000       9.00000000" Properties=species:S:1:pos:R:3:momenta:R:3:forces:R:3:Z:I:1:map_shift:I:3:n_neighb:I:1:force:R:3:local_energy:R:1:gap_var:R:1:gap_variance_gradient:R:3
C              -2.28179686     -0.01898712      0.00258283      3.31876121     -0.75616810     -0.48184389     -1.42852142      0.54707180      0.21831118       6       0       0       0      11     -1.32719446      0.64149953      0.24309313   -153.58505664      0.00729302      0.01824253      0.00964641      0.00180893
O              -2.40201299     -1.12621937     -0.24135951      5.44871454     -0.34101692      0.07570663     -0.65642250     -5.29004395     -1.67432059       8       0       0       0      13     -0.58899438     -4.58928896     -1.29350365   -437.49472799      0.00392870      0.01059255      0.01688168      0.00113554
O              -2.13261014      1.07429818      0.30311764      5.23543133      1.43623026      0.52406595     -0.99505371      5.11116173      1.44994267       8       0       0       0      15     -0.99015446      4.32144610      1.01994950   -437.73483947      0.00742792      0.00772343     -0.01926504     -0.00492145
C               1.67526302      0.30797312      0.26772750     -5.92735477      0.02980733     -0.46025183     -3.29929900     -1.00100449     -0.64975654       6       0       0       0      13     -1.87181494     -1.45950839     -0.82345535   -154.17687366      0.00490540     -0.00953220     -0.00056279     -0.00394916
C               0.57725413     -0.45924174     -0.19814261     -5.88132034     -1.06564047      0.23448295      2.21999424      2.72147129     -0.15211192       6       0       0       0      15      2.19701254      2.12445072     -0.34468903   -153.11756218      0.00704746      0.00446397      0.00134885      0.00256418
H               1.42645054      1.25928513      0.83592478     -0.40545984      0.05834586     -0.02811580      1.51379619     -1.21482962     -0.53646546       1       0       0       0      19      1.24856522     -0.72623071     -0.17286132    -16.72604548      0.00522096      0.00194582      0.00438346      0.00121362
H               2.67027829     -0.10794996      0.11318670     -0.71680339      0.22959880      0.36886235      1.61980708      0.41929860      0.40156713       1       0       0       0      15      0.88294626      0.67794244      0.46125977    -16.44700588      0.00310186     -0.00053804     -0.00091991     -0.00169579
H              -0.33015108      0.16265788      0.03228406     -0.49856818      0.27096309      0.05107255      1.81601061     -1.62472498     -0.53697017       1       0       0       0      15      1.09919608     -1.14854213     -0.26272055    -14.96474691      0.01707365     -0.04173665     -0.00366189      0.01065846
H               0.79732509     -1.09181612     -1.11532139     -0.57340058      0.13788016     -0.28397891     -0.79031149      0.33159963      1.47980370       1       0       0       0      20     -0.64956186      0.15823140      1.17292750    -16.89257260      0.00667471      0.00883857     -0.00785077     -0.00681431
9
EPS_SCF=0.00000100 energy=-1400.9633757751039 units=gap_units Integrated_spin_density=0.00006551 opt_dir=/home/tks32/dft_pbe/apr_8_opt_fragments_subset/singlepoint_1_CO2 time=8.00000000 free_energy=-1400.63932447 cutoff=8.00000000 nneightol=1.20000000 pbc="T T T" Lattice="13.00000000       0.00000000       0.00000000       0.00000000       9.00000000       0.00000000       0.00000000       0.00000000       9.00000000" Properties=species:S:1:pos:R:3:momenta:R:3:forces:R:3:Z:I:1:map_shift:I:3:n_neighb:I:1:force:R:3:local_energy:R:1:gap_var:R:1:gap_variance_gradient:R:3
C              -2.23478534     -0.02495783      0.00227031      3.22826183     -0.59332327     -0.40465234     -1.43961527      2.52564709      0.84108578       6       0       0       0      12     -1.37188642      1.83632219      0.57149424   -153.64008475      0.00792586      0.02560998      0.00896120      0.00077959
O              -2.35056354     -1.13359405     -0.23731026      5.08278534     -0.98661558     -0.23300479     -0.58609086     -5.46601848     -1.77024296       8       0       0       0      13     -0.49482661     -4.43206346     -1.30160568   -437.51326474      0.00409860      0.01119023      0.01645077      0.00098652
O              -2.07902698      1.08116381      0.30571824      5.05965592      1.90414592      0.59438627     -1.23343241      3.31170274      0.90250707       8       0       0       0      15     -1.19374644      2.98164506      0.67957213   -437.72028932      0.00785346      0.01135592     -0.01831424     -0.00475244
C               1.64681419      0.30267605      0.26228910     -6.07019905     -0.02107170     -0.38694009     -3.86014928     -0.54134813     -0.41059936       6       0       0       0      13     -1.96937794     -1.17715448     -0.65772149   -154.10553803      0.00521599     -0.01386582     -0.00209151     -0.00510373