9
EPS_SCF=0.00000100 energy=-1401.8498565490638 units=gap_units Integrated_spin_density=0.00006551 opt_dir=/home/tks32/dft_pbe/apr_8_opt_fragments_subset/singlepoint_1_CO2 time=0.00000000 free_energy=-1401.84985654 cutoff=8.00000000 nneightol=1.20000000 pbc="T T T" Lattice="13.00000000       0.00000000       0.00000000       0.00000000       9.00000000       0.00000000       0.00000000       0.00000000       9.00000000" Properties=species:S:1:pos:R:3:momenta:R:3:forces:R:3:Z:I:1:map_shift:I:3:n_neighb:I:1:force:R:3:local_energy:R:1:gap_var:R:1:gap_variance_gradient:R:3
C              -2.66661630      0.00003508     -0.00008450      5.45409721      0.81308744     -0.21939016     -0.71616738      0.08149990      0.07809224       6       0       0       0      12     -0.71616740      0.08149946      0.07809209   -152.36801565      0.00469919      0.00753098     -0.00155187     -0.00082503
O              -2.79916745     -1.12388035     -0.32607284      6.91856637      1.60105312      0.69227000     -0.00977911      0.19278933      0.11863095       8       0       0       0      14     -0.00977908      0.19278975      0.11863108   -437.72026183      0.00376144     -0.00437837      0.00314623     -0.00002105
O              -2.53420761      1.12385113      0.32614266      6.44529771     -2.41414056     -0.47287984      0.60777930     -0.29930868     -0.09183242       8       0       0       0      14      0.60777928     -0.29930867     -0.09183241   -438.43012828      0.00381012      0.00944956     -0.00857660     -0.00114853
C               1.85829380      0.32653053      0.25008286     -5.69597901      0.88593916      0.41407752      0.57584133      0.68705914      0.43457040       6       0       0       0      15      0.57584140      0.68705888      0.43457017   -153.99792902      0.00306717      0.00582900     -0.00082158     -0.00063726
C               0.80837003     -0.32653266     -0.25007829     -6.07650281     -1.32504139      0.17494715     -0.90079645     -1.10620546     -0.51939980       6       0       0       0      14     -0.90079627     -1.10620558     -0.51939988   -153.07284990      0.00666219     -0.01240857      0.00762508      0.00899194
H               1.73876223      1.17877639      0.91904262     -0.67682574     -0.05175688     -0.30347750     -0.24543084      0.30760741      0.29124826       1       0       0       0      19     -0.24543082      0.30760755      0.29124838    -16.62958607      0.00316126     -0.00051773     -0.00123813     -0.00239676
H               2.88157783      0.03641793      0.01166621     -0.20088037     -0.43346916     -0.14053191      0.55674304      0.06718708     -0.00289936       1       0       0       0      15      0.55674287      0.06718716     -0.00289928    -16.58860884      0.00304409     -0.00057028      0.00009126     -0.00015559
H              -0.21491357     -0.03641919     -0.01166099     -0.11295227      0.37406457      0.09108301      0.27576887      0.09625598     -0.16517844       1       0       0       0      14      0.27576879      0.09625601     -0.16517842    -16.04784753      0.01509267     -0.00624351      0.00130748     -0.00380807
H               0.92790105     -1.17877889     -0.91903774     -0.29107960      0.55026370     -0.23609827     -0.14395874     -0.02688471     -0.14323184       1       0       0       0      19     -0.14395877     -0.02688457     -0.14323174    -16.99462942      0.00546950      0.00130894      0.00001814      0.00000035
9
EPS_SCF=0.00000100 energy=-1401.8817570008796 units=gap_units Integrated_spin_density=0.00006551 opt_dir=/home/tks32/dft_pbe/apr_8_opt_fragments_subset/singlepoint_1_CO2 time=1.00000000 free_energy=-1401.80709005 cutoff=8.00000000 nneightol=1.20000000 pbc="T T T" Lattice="13.00000000       0.00000000       0.00000000       0.00000000       9.00000000       0.00000000       0.00000000       0.00000000       9.00000000" Properties=species:S:1:pos:R:3:momenta:R:3:forces:R:3:Z:I:1:map_shift:I:3:n_neighb:I:1:force:R:3:local_energy:R:1:gap_var:R:1:gap_variance_gradient:R:3
C              -2.62370948     -0.00023969      0.00076754      4.33379230      0.85202192     -0.22813873     -0.81150355     -1.42441597     -0.30617401       6       0       0       0      11     -0.67477251     -0.27989568      0.01210314   -152.47222880      0.00490193      0.00753400     -0.00044313     -0.00100294
O              -2.76027882     -1.12277005     -0.30288986      5.68534428      1.50966954      0.73141744      0.19302939     -0.43047360     -0.13568442       8       0       0       0      13      0.16759507     -0.63332355     -0.15997030   -437.71152408      0.00370088     -0.00315575      0.00515186      0.00061542
O              -2.49006724      1.11643320      0.31051542      5.35278514     -2.29325472     -0.34703573      1.03688060      1.78035087      0.48871193       8       0       0       0      14      0.93268188      0.84523509      0.20815368   -438.40332274      0.00418501      0.01448819     -0.01204665     -0.00212025
C               1.83600667      0.32029781      0.25489314     -6.49319712      0.97275051      0.38506449      1.63794139     -0.77819499     -0.70970603       6       0       0       0      13     -0.30828539      0.22274736      0.04122989   -154.13435500      0.00309455      0.00574835     -0.00008138     -0.00064422
C               0.76600948     -0.36358403     -0.24520570     -7.19264930     -1.48450644      0.09409432     -0.56899382     -0.25673259     -0.01772384       6       0       0       0      14      0.05495787      0.19789910      0.30649478   -153.14538448      0.00666785     -0.01894164      0.00769024      0.00688504
H               1.71292488      1.18231965      0.91370835     -0.79598878      0.03390291     -0.28193947     -0.06592477      0.98773189      0.86949274       1       0       0       0      19     -0.19382044      0.23623515      0.30014240    -16.62242202      0.00331501     -0.00151456     -0.00094828     -0.00231510
H               2.86091746      0.03339613      0.02594876     -0.31185103     -0.41557069     -0.08813917     -0.65869152      0.71712952      0.49794926       1       0       0       0      15      0.63851703      0.03421784     -0.00529387    -16.55445045      0.00304945     -0.00055833      0.00022661     -0.00006550
H              -0.21812514     -0.01619159     -0.01281322     -0.24178677      0.34712648      0.04521078     -0.55752186      0.19174938     -0.04621524       1       0       0       0      14     -0.49162790      0.16854822     -0.04713372    -15.88771573      0.01536414     -0.00605623     -0.00157989     -0.00265997
H               0.91632221     -1.14966143     -0.94492443     -0.33644872      0.47786049     -0.31053392     -0.20521585     -0.78714452     -0.64065039       1       0       0       0      19     -0.12524562     -0.79166354     -0.65572600    -16.95035369      0.00566799      0.00245597      0.00203062      0.00130752
9
EPS_SCF=0.00000100 energy=-1401.8854141668708 units=gap_units Integrated_spin_density=0.00006551 opt_dir=/home/tks32/dft_pbe/apr_8_opt_fragments_subset/singlepoint_1_CO2 time=2.00000000 free_energy=-1401.67462158 cutoff=8.00000000 nneightol=1.20000000 pbc="T T T" Lattice="13.00000000       0.00000000       0.00000000       0.00000000       9.00000000       0.00000000       0.00000000       0.00000000       9.00000000" Properties=species:S:1:pos:R:3:momenta:R:3:forces:R:3:Z:I:1:map_shift:I:3:n_neighb:I:1:force:R:3:local_energy:R:1:gap_var:R:1:gap_variance_gradient:R:3
C              -2.58469865     -0.00766601      0.00351754      4.18961870      0.58808281     -0.21318432     -0.79890505     -2.84338816     -0.68243680       6       0       0       0      11     -0.59651864     -0.15844685      0.05407412   -152.52730494      0.00502207      0.00567203      0.00097858     -0.00119078
O              -2.72142955     -1.12822786     -0.29401591      5.83658565      1.45276544      0.57954698      0.20674923     -1.14170949     -0.40303280       8       0       0       0      13      0.24029686     -1.09007463     -0.33029047   -437.69778315      0.00362336     -0.00159829      0.00619015      0.00094847
O              -2.45207209      1.10680194      0.31165317      5.41636925     -1.94633903     -0.19699841      1.26652863      3.89976846      1.10538090       8       0       0       0      14      0.96899917      1.16216431      0.29351312   -438.38300942      0.00463136      0.01762063     -0.01328402     -0.00271417
C               1.81756883      0.31392697      0.25388880     -6.24674736      0.78628328      0.40527052      2.06040657     -1.91621692     -1.48368732       6       0       0       0      13     -0.69011232      0.20047234      0.02137462   -154.18291297      0.00316489      0.00265042      0.00008349     -0.00136402
C               0.74430060     -0.37079203     -0.25649606     -7.31324149     -1.43031665     -0.05102324      0.01704591      0.38986945      0.41079465       6       0       0       0      14      0.14698993      0.84428176      0.84333653   -153.15633207      0.00663397     -0.01918406      0.00759585      0.00540839
H               1.69110237      1.18984772      0.90240716     -0.85381452      0.13773793     -0.15637603      0.06415122      1.25600432      1.09991196       1       0       0       0      19     -0.16143180      0.06485081      0.18284925    -16.64708192      0.00348258     -0.00172080     -0.00072557     -0.00220470
H               2.83900050      0.01698727      0.05471735     -0.38501136     -0.32317112     -0.01488909     -1.43157696      1.24656717      0.84923773       1       0       0       0      15      0.90080413     -0.02444329     -0.04899896    -16.54886833      0.00306285     -0.00126651      0.00049453     -0.00010079
H              -0.21914584      0.01815869     -0.01992175     -0.28824680      0.35728396      0.04430368     -1.18585879      0.31792362      0.06089582       1       0       0       0      14     -0.74279570      0.23094473     -0.01934979    -15.77237585      0.01546266     -0.00629762     -0.00391715     -0.00033931
H               0.88537382     -1.13903669     -0.95575029     -0.35551208      0.37767338     -0.39665010     -0.19854076     -1.20881845     -0.95706415       1       0       0       0      19     -0.06623162     -1.22974918     -0.99650841    -16.96974551      0.00584389      0.00412421      0.00258414      0.00155692
9
EPS_SCF=0.00000100 energy=-1401.9238859704728 units=gap_units Integrated_spin_density=0.00006551 opt_dir=/home/tks32/dft_pbe/apr_8_opt_fragments_subset/singlepoint_1_CO2 time=3.00000000 free_energy=-1401.55056824 cutoff=8.00000000 nneightol=1.20000000 pbc="T T T" Lattice="13.00000000       0.00000000       0.00000000       0.00000000       9.00000000       0.00000000       0.00000000       0.00000000       9.00000000" Properties=species:S:1:pos:R:3:momenta:R:3:forces:R:3:Z:I:1:map_shift:I:3:n_neighb:I:1:force:R:3:local_energy:R:1:gap_var:R:1:gap_variance_gradient:R:3
C              -2.53885152     -0.01473632      0.00096172      4.07138753      0.41386169     -0.24725092     -0.72950985     -3.96429592     -1.00782828       6       0       0       0      11     -0.53280430     -0.95670747     -0.14331103   -152.60291196      0.00509919      0.00405253      0.00345952     -0.00075765
O              -2.66227773     -1.13916324     -0.30175850      5.81442161      1.19913423      0.56414338     -0.20010234     -2.03571284     -0.69468309       8       0       0       0      13      0.29202419     -0.96121779     -0.37135606   -437.73314902      0.00350583      0.00189519      0.00689881      0.00089178
O              -2.42077352      1.09098131      0.32177032      5.46339130     -1.55894459     -0.17210227      1.21590921      5.90540747      1.70951904       8       0       0       0      14      0.98225172      1.79002705      0.46987930   -438.32644125      0.00513441      0.01807535     -0.01342259     -0.00303786
C               1.79407249      0.30801192      0.24972834     -5.92234737      0.68982411      0.20405339      1.60892804     -2.52755940     -1.84248447       6       0       0       0      13     -0.05343990      0.40000764      0.19783086   -154.17744196      0.00333044     -0.00312724      0.00004491     -0.00228831
C               0.72074302     -0.36390834     -0.25586025     -7.30574219     -1.44656198      0.13345850      1.30949159      0.71403671      0.47981591       6       0       0       0      14     -0.33742090      0.55159425      0.51969076   -153.14623100      0.00660790     -0.01626473      0.00827081      0.00527039
H               1.67726149      1.20068956      0.88071986     -0.84230628      0.21153957     -0.06415624      0.30427320      1.00629956      0.94965096       1       0       0       0      19     -0.17244294     -0.03008667      0.11639356    -16.67461328      0.00361923     -0.00140023     -0.00062980     -0.00218270
H               2.81476233     -0.01467822      0.07850997     -0.51883287     -0.21330493      0.04821430     -1.73761583      1.57895576      1.04365547       1       0       0       0      15      0.87286184      0.03230356     -0.01111543    -16.56967113      0.00306286     -0.00219847      0.00061371     -0.00024419
H              -0.22625387      0.06876550     -0.01163727     -0.40903545      0.41494358      0.02540587     -1.49353444      0.40290776      0.14159045       1       0       0       0      14     -0.81750170      0.25592753      0.00244734    -15.66186287      0.01568615     -0.00653219     -0.00605080      0.00207806
H               0.84131730     -1.13596218     -0.96243418     -0.35093626      0.28950832     -0.49176601     -0.27783958     -1.08003911     -0.77923599       1       0       0       0      19     -0.23352801     -1.08184809     -0.78045929    -17.03156351      0.00591600      0.00549979      0.00081542      0.00027048
9
EPS_SCF=0.00000100 energy=-1401.9591507634202 units=gap_units Integrated_spin_density=0.00006551 opt_dir=/home/tks32/dft_pbe/apr_8_opt_fragments_subset/singlepoint_1_CO2 time=4.00000000 free_energy=-1401.44746234 cutoff=8.00000000 nneightol=1.20000000 pbc="T T T" Lattice="13.00000000       0.00000000       0.00000000       0.00000000       9.00000000       0.00000000       0.00000000       0.00000000       9.00000000" Properties=species:S:1:pos:R:3:momenta:R:3:forces:R:3:Z:I:1:map_shift:I:3:n_neighb:I:1:force:R:3:local_energy:R:1:gap_var:R:1:gap_variance_gradient:R:3
C              -2.49396761     -0.02253319     -0.00093603      3.83401644      0.10215286     -0.30272091     -0.75647870     -4.47581160     -1.19155721       6       0       0       0      11     -0.37125153     -1.53017925     -0.29491962   -152.70870535      0.00515263      0.00358335      0.00567668     -0.00046633
O              -2.60279832     -1.15026378     -0.30890486      5.85595134      1.02640977      0.45889368     -0.47036453     -2.92120069     -0.97914372       8       0       0       0      13      0.14369913     -0.87219152     -0.39824248   -437.77651987      0.00344456      0.00584616      0.00761872      0.00057028
O              -2.38923539      1.07585611      0.33286388      5.57674072     -0.91675655      0.05513117      0.95230845      7.34604293      2.15065098       8       0       0       0      14      0.79653048      2.27499668      0.61957055   -438.26220448      0.00561829      0.01614927     -0.01258058     -0.00315130
C               1.77076071      0.30178288      0.24595587     -5.80104505      0.35788733     -0.01122505      0.43910267     -2.65851440     -1.84838987       6       0       0       0      13      0.48777112      0.51561659      0.33285334   -154.16468648      0.00360371     -0.00801063      0.00048386     -0.00308810
C               0.69740788     -0.35773644     -0.25527082     -7.08094126     -1.40037582      0.12574407      2.29954060      1.04792506      0.33780985       6       0       0       0      14     -0.47634652      0.34937926      0.22109847   -153.12426453      0.00666530     -0.01243494      0.00836619      0.00467738
H               1.66314206      1.21170667      0.85819321     -0.79038513      0.29900812      0.01256534      0.74239993      0.38161103      0.53951527       1       0       0       0      19     -0.20464315     -0.13599556      0.04642945    -16.70018856      0.00375925     -0.00108983     -0.00053792     -0.00210601
H               2.79023822     -0.04655425      0.10431701     -0.68298578     -0.06848502      0.13455189     -1.59750662      1.69495291      1.08629721       1       0       0       0      15      0.81682729      0.09204257      0.02710360    -16.59072477      0.00306435     -0.00300024      0.00070951     -0.00042199
H              -0.23310633      0.12038204     -0.00665382     -0.54448456      0.42301594      0.03037325     -1.16525455      0.24058734      0.11549849       1       0       0       0      14     -0.83427279      0.24058097      0.02066587    -15.56208095      0.01571459     -0.00603249     -0.00869342      0.00463401
H               0.79755877     -1.13264003     -0.96956444     -0.36686672      0.17714336     -0.50331344     -0.44374724     -0.65559258     -0.21068101       1       0       0       0      19     -0.35831404     -0.93424974     -0.57455918    -17.06977578      0.00599619      0.00498935     -0.00104305     -0.00064794
9
EPS_SCF=0.00000100 energy=-1401.9718488885178 units=gap_units Integrated_spin_density=0.00006551 opt_dir=/home/tks32/dft_pbe/apr_8_opt_fragments_subset/singlepoint_1_CO2 time=5.00000000 free_energy=-1401.34185730 cutoff=8.00000000 nneightol=1.20000000 pbc="T T T" Lattice="13.00000000       0.00000000       0.00000000       0.00000000       9.00000000       0.00000000       0.00000000       0.00000000       9.00000000" Properties=species:S:1:pos:R:3:momenta:R:3:forces:R:3:Z:I:1:map_shift:I:3:n_neighb:I:1:force:R:3:local_energy:R:1:gap_var:R:1:gap_variance_gradient:R:3
C              -2.45005461     -0.03060581     -0.00170383      3.65034013     -0.26394012     -0.45399097     -0.85835256     -3.84630863     -1.04632120       6       0       0       0      11     -0.25787708     -2.00173985     -0.42176079   -152.83218789      0.00521752      0.00401799      0.00768200     -0.00023914
O              -2.54332006     -1.16235976     -0.31278812      5.67886877      0.51872535      0.32313584     -0.58112975     -3.74934489     -1.23641473       8       0       0       0      13     -0.01599096     -0.70284053     -0.37496429   -437.81943489      0.00345276      0.00833355      0.00797994      0.00016855
O              -2.35726599      1.06196889      0.34332546      5.56681262      0.00639366      0.23174546      0.41707803      7.67174886      2.25093872       8       0       0       0      14      0.52300678      2.62064597      0.72754850   -438.19726733      0.00603606      0.01214066     -0.01101815     -0.00310389
C               1.74758686      0.29501687      0.24323047     -5.65370070      0.16709423     -0.13705955     -0.93536068     -2.28856532     -1.53465339       6       0       0       0      13      0.95625217      0.54772222      0.42693329   -154.14694504      0.00391976     -0.01072415      0.00135806     -0.00369125
C               0.67410002     -0.35272210     -0.25512566     -6.65067701     -1.34894459      0.20491727      2.67646047      1.52320041      0.11226271       6       0       0       0      14     -0.63770875      0.28131701     -0.01296983   -153.08340922      0.00676068     -0.00746637      0.00767635      0.00352281
H               1.64829285      1.22219436      0.83591200     -0.71443047      0.30197197      0.07206222      1.18893813     -0.40118918      0.02163459       1       0       0       0      19     -0.19876799     -0.23492464     -0.01066375    -16.72228623      0.00391682     -0.00109868     -0.00058609     -0.00205026
H               2.76536950     -0.07852854      0.13282297     -0.81175678      0.09106857      0.19400007     -0.94097474      1.52892808      0.97588576       1       0       0       0      15      0.73435527      0.15270968      0.06411966    -16.61109989      0.00306733     -0.00350491      0.00073363     -0.00059795
H              -0.23964371      0.17298977     -0.00690623     -0.62076290      0.40360439      0.04915803     -0.34630828     -0.25048393     -0.04128985       1       0       0       0      14     -0.76612817      0.16059245      0.02164304    -15.47184266      0.01546225     -0.00567082     -0.01105453      0.00730944
H               0.75493514     -1.12795369     -0.97876706     -0.44469366      0.12402654     -0.48396837     -0.62035063     -0.18798540      0.49795738       1       0       0       0      19     -0.33714126     -0.82348233     -0.41988583    -17.08737573      0.00614392      0.00397273     -0.00277121     -0.00131831
9
EPS_SCF=0.00000100 energy=-1401.9822588792306 units=gap_units Integrated_spin_density=0.00006551 opt_dir=/home/tks32/dft_pbe/apr_8_opt_fragments_subset/singlepoint_1_CO2 time=6.00000000 free_energy=-1401.15646345 cutoff=8.00000000 nneightol=1.20000000 pbc="T T T" Lattice="13.00000000       0.00000000       0.00000000       0.00000000       9.00000000       0.00000000       0.00000000       0.00000000       9.00000000" Properties=species:S:1:pos:R:3:momenta:R:3:forces:R:3:Z:I:1:map_shift:I:3:n_neighb:I:1:force:R:3:local_energy:R:1:gap_var:R:1:gap_variance_gradient:R:3
C              -2.40294799     -0.03893751     -0.00389874      3.44040887     -0.73444560     -0.48257399     -1.08994558     -2.02998433     -0.53927024       6       0       0       0      11     -0.21818971     -1.81126501     -0.32049842   -152.90239658      0.00540542      0.00609175      0.00849317     -0.00004484
O              -2.48132262     -1.17654512     -0.33724190      5.56433060      0.23507098      0.19688949     -0.58295557     -4.52071845     -1.45151581       8       0       0       0      13      0.18098038      0.33875983     -0.14066276   -437.92106168      0.00350827      0.00881664      0.00605163     -0.00052767
O              -2.31906258      1.05438052      0.37520244      5.50466521      0.75119573      0.39936073     -0.36758255      6.83543406      1.98809730       8       0       0       0      14     -0.01679280      1.47052771      0.38360996   -438.19213400      0.00633871      0.00859866     -0.00708068     -0.00236182
C               1.72080726      0.29492590      0.23475577     -5.66227291      0.11548816     -0.25044162     -2.29327118     -1.69526041     -1.09123715       6       0       0       0      13      1.87265207      0.53767041      0.63359621   -154.00457213      0.00422971     -0.01346527      0.00118489     -0.00450842
C               0.66938291     -0.32044824     -0.26269794     -6.33658310     -1.21289169      0.17536752      2.55437441      2.16332940     -0.02746076       6       0       0       0      14     -1.22569908     -0.74663889     -0.91342855   -152.92162264      0.00681066      0.00080155      0.00888970      0.00542436
H               1.62899062      1.23710698      0.80713317     -0.58998536      0.19816171      0.05981090      1.45894146     -0.98926402     -0.37595699       1       0       0       0      18     -0.13321293     -0.28890721     -0.08174236    -16.78351844      0.00413222     -0.00184159     -0.00088531     -0.00221432
H               2.73838840     -0.11115032      0.16691138     -0.82991461      0.16353986      0.27484889      0.24074476      1.05676726      0.71432274       1       0       0       0      14      0.47652559      0.30220506      0.09126812    -16.67188940      0.00306920     -0.00378124      0.00053899     -0.00080939
H              -0.25240028      0.21131900     -0.00344127     -0.60736388      0.38767575      0.02541723      0.79495426     -0.97728598     -0.29820946       1       0       0       0      14     -0.52207004      0.15811232     -0.00567234    -15.42177011      0.01543620     -0.00756865     -0.01162717      0.00840689
H               0.69816428     -1.15065121     -0.97672292     -0.48328484      0.09620511     -0.39867914     -0.71526001      0.15698246      1.08123039       1       0       0       0      19     -0.41419347      0.03953579      0.35353014    -17.16329389      0.00634430      0.00234814     -0.00556522     -0.00336479
9
EPS_SCF=0.00000100 energy=-1401.9211502940025 units=gap_units Integrated_spin_density=0.00006551 opt_dir=/home/tks32/dft_pbe/apr_8_opt_fragments_subset/singlepoint_1_CO2 time=7.00000000 free_energy=-1400.86733605 cutoff=8.00000000 nneightol=1.20000000 pbc="T T T" Lattice="13.00000000       0.00000000       0.00000000       0.00000000       9.00000000       0.00000000       0.00000000       0.00000000       9.00000000" Properties=species:S:1:pos:R:3:momenta:R:3:forces:R:3:Z:I:1:map_shift:I:3:n_neighb:I:1:force:R:3:local_energy:R:1:gap_var:R:1:gap_variance_gradient:R:3
C              -2.35346183     -0.04070553     -0.00610934      3.31876121     -0.75616810     -0.48184389     -1.42852142      0.54707180      0.21831118       6       0       0       0      11     -0.49624047     -2.01172352     -0.30382103   -153.01895176      0.00571637      0.00872149      0.00985781      0.00034678
O              -2.42004064     -1.18585445     -0.34097544      5.44871454     -0.34101692      0.07570663     -0.65642250     -5.29004395     -1.67432059       8       0       0       0      13      0.27388229      0.99987934     -0.00814405   -437.99156437      0.00360533      0.00815383      0.00532514     -0.00069360
O              -2.27332986      1.05183402      0.38806350      5.23543133      1.43623026      0.52406595     -0.99505371      5.11116173      1.44994267       8       0       0       0      15     -0.63497144      1.11351386      0.24185194   -438.12383977      0.00669526      0.00684699     -0.00560033     -0.00239987
C               1.69016990      0.29431048      0.23402070     -5.92735477      0.02980733     -0.46025183     -3.29929900     -1.00100449     -0.64975654       6       0       0       0      12      2.72917354      0.17907839      0.53828794   -153.95447808      0.00450998     -0.01478987      0.00081521     -0.00510676
C               0.64319082     -0.32006587     -0.25530370     -5.88132034     -1.06564047      0.23448295      2.21999424      2.72147129     -0.15211192       6       0       0       0      15     -1.10940582     -1.02662559     -1.33350749   -152.85967663      0.00688385      0.00533568      0.00921872      0.00535324
H               1.60424875      1.24664413      0.78572161     -0.40545984      0.05834586     -0.02811580      1.51379619     -1.21482962     -0.53646546       1       0       0       0      17     -0.01894534     -0.17461775      0.00142491    -16.81468075      0.00444096     -0.00257382     -0.00086641     -0.00216702
H               2.71210553     -0.13018848      0.19017131     -0.71680339      0.22959880      0.36886235      1.61980708      0.41929860      0.40156713       1       0       0       0      14      0.16937954      0.44289563      0.11901964    -16.69267031      0.00307166     -0.00318313      0.00043728     -0.00086008
H              -0.26705707      0.23602737     -0.00198244     -0.49856818      0.27096309      0.05107255      1.81601061     -1.62472498     -0.53697017       1       0       0       0      15     -0.46557839      0.12674706      0.00968480    -15.31172687      0.01539689     -0.01114311     -0.01251769      0.00989280
H               0.66417440     -1.15200166     -0.99360620     -0.57340058      0.13788016     -0.28397891     -0.79031149      0.33159963      1.47980370       1       0       0       0      20     -0.44729391      0.35085258      0.73520333    -17.15356176      0.00650296      0.00263195     -0.00666973     -0.00436549
9
EPS_SCF=0.00000100 energy=-1401.8181526588073 units=gap_units Integrated_spin_density=0.00006551 opt_dir=/home/tks32/dft_pbe/apr_8_opt_fragments_subset/singlepoint_1_CO2 time=8.00000000 free_energy=-1400.63932447 cutoff=8.00000000 nneightol=1.20000000 pbc="T T T" Lattice="13.00000000       0.00000000       0.00000000       0.00000000       9.00000000       0.00000000       0.00000000       0.00000000       9.00000000" Properties=species:S:1:pos:R:3:momenta:R:3:forces:R:3:Z:I:1:map_shift:I:3:n_neighb:I:1:force:R:3:local_energy:R:1:gap_var:R:1:gap_variance_gradient:R:3
C              -2.31295241     -0.04385924     -0.00129930      3.22826183     -0.59332327     -0.40465234     -1.43961527      2.52564709      0.84108578       6       0       0       0      12     -0.85849505     -1.15932105      0.01399438   -153.10032197      0.00606710      0.01112590      0.00952221     -0.00031469
O              -2.38025788     -1.19039615     -0.32404040      5.08278534     -0.98661558     -0.23300479     -0.58609086     -5.46601848     -1.77024296       8       0       0       0      13      0.13938954      0.92752957     -0.07371711   -437.99402502      0.00370698      0.00840570      0.00541799     -0.00060618
O              -2.21903943      1.05817223      0.39141345      5.05965592      1.90414592      0.59438627     -1.23343241      3.31170274      0.90250707       8       0       0       0      15     -1.26789198      0.40468859     -0.00139944   -438.06623541      0.00695781      0.00557320     -0.00421239     -0.00253942
C               1.66468612      0.29288601      0.23793350     -6.07019905     -0.02107170     -0.38694009     -3.86014928     -0.54134813     -0.41059936       6       0       0       0      12      3.61025911      0.12392134      0.55342637   -153.95171482      0.00470558     -0.01617269      0.00019397     -0.00581286