9
EPS_SCF=0.00000100 energy=-1401.8498565490638 units=gap_units Integrated_spin_density=0.00006551 opt_dir=/home/tks32/dft_pbe/apr_8_opt_fragments_subset/singlepoint_1_CO2 time=0.00000000 free_energy=-1401.84985654 cutoff=8.00000000 nneightol=1.20000000 pbc="T T T" Lattice="13.00000000       0.00000000       0.00000000       0.00000000       9.00000000       0.00000000       0.00000000       0.00000000       9.00000000" Properties=species:S:1:pos:R:3:momenta:R:3:forces:R:3:Z:I:1:map_shift:I:3:n_neighb:I:1:force:R:3:local_energy:R:1:gap_var:R:1:gap_variance_gradient:R:3
C              -2.66661630      0.00003508     -0.00008450      5.45409721      0.81308744     -0.21939016     -0.71616738      0.08149990      0.07809224       6       0       0       0      12     -0.71616740      0.08149946      0.07809209   -152.36801565      0.00469919      0.00753098     -0.00155187     -0.00082503
O              -2.79916745     -1.12388035     -0.32607284      6.91856637      1.60105312      0.69227000     -0.00977911      0.19278933      0.11863095       8       0       0       0      14     -0.00977908      0.19278975      0.11863108   -437.72026183      0.00376144     -0.00437837      0.00314623     -0.00002105
O              -2.53420761      1.12385113      0.32614266      6.44529771     -2.41414056     -0.47287984      0.60777930     -0.29930868     -0.09183242       8       0       0       0      14      0.60777928     -0.29930867     -0.09183241   -438.43012828      0.00381012      0.00944956     -0.00857660     -0.00114853
C               1.85829380      0.32653053      0.25008286     -5.69597901      0.88593916      0.41407752      0.57584133      0.68705914      0.43457040       6       0       0       0      15      0.57584140      0.68705888      0.43457017   -153.99792902      0.00306717      0.00582900     -0.00082158     -0.00063726
C               0.80837003     -0.32653266     -0.25007829     -6.07650281     -1.32504139      0.17494715     -0.90079645     -1.10620546     -0.51939980       6       0       0       0      14     -0.90079627     -1.10620558     -0.51939988   -153.07284990      0.00666219     -0.01240857      0.00762508      0.00899194
H               1.73876223      1.17877639      0.91904262     -0.67682574     -0.05175688     -0.30347750     -0.24543084      0.30760741      0.29124826       1       0       0       0      19     -0.24543082      0.30760755      0.29124838    -16.62958607      0.00316126     -0.00051773     -0.00123813     -0.00239676
H               2.88157783      0.03641793      0.01166621     -0.20088037     -0.43346916     -0.14053191      0.55674304      0.06718708     -0.00289936       1       0       0       0      15      0.55674287      0.06718716     -0.00289928    -16.58860884      0.00304409     -0.00057028      0.00009126     -0.00015559
H              -0.21491357     -0.03641919     -0.01166099     -0.11295227      0.37406457      0.09108301      0.27576887      0.09625598     -0.16517844       1       0       0       0      14      0.27576879      0.09625601     -0.16517842    -16.04784753      0.01509267     -0.00624351      0.00130748     -0.00380807
H               0.92790105     -1.17877889     -0.91903774     -0.29107960      0.55026370     -0.23609827     -0.14395874     -0.02688471     -0.14323184       1       0       0       0      19     -0.14395877     -0.02688457     -0.14323174    -16.99462942      0.00546950      0.00130894      0.00001814      0.00000035
9
EPS_SCF=0.00000100 energy=-1401.8638108532725 units=gap_units Integrated_spin_density=0.00006551 opt_dir=/home/tks32/dft_pbe/apr_8_opt_fragments_subset/singlepoint_1_CO2 time=1.00000000 free_energy=-1401.80709005 cutoff=8.00000000 nneightol=1.20000000 pbc="T T T" Lattice="13.00000000       0.00000000       0.00000000       0.00000000       9.00000000       0.00000000       0.00000000       0.00000000       9.00000000" Properties=species:S:1:pos:R:3:momenta:R:3:forces:R:3:Z:I:1:map_shift:I:3:n_neighb:I:1:force:R:3:local_energy:R:1:gap_var:R:1:gap_variance_gradient:R:3
C              -2.61065241     -0.00044081     -0.00529541      4.33379230      0.85202192     -0.22813873     -0.81150355     -1.42441597     -0.30617401       6       0       0       0      11     -0.68837473     -0.72839202     -0.10505419   -152.49515000      0.00489611      0.00665772     -0.00020023     -0.00007836
O              -2.74161007     -1.12160711     -0.32653946      5.68534428      1.50966954      0.73141744      0.19302939     -0.43047360     -0.13568442       8       0       0       0      13      0.19439435     -0.40314193     -0.12588669   -437.71386037      0.00368345     -0.00200729      0.00546024      0.00096099
O              -2.48259945      1.10872250      0.32298349      5.35278514     -2.29325472     -0.34703573      1.03688060      1.78035087      0.48871193       8       0       0       0      14      0.94978320      1.05233809      0.28636245   -438.38390943      0.00434519      0.01499637     -0.01259527     -0.00198381
C               1.83181130      0.32593854      0.25017600     -6.49319712      0.97275051      0.38506449      1.63794139     -0.77819499     -0.70970603       6       0       0       0      13      0.70481123      0.59400046      0.34876411   -154.03294148      0.00309166      0.00368365     -0.00104600     -0.00060241
C               0.77705564     -0.33807511     -0.23669123     -7.19264930     -1.48450644      0.09409432     -0.56899382     -0.25673259     -0.01772384       6       0       0       0      14     -1.17863598     -1.09652014     -0.65568119   -153.04851794      0.00658685     -0.01362956      0.00844704      0.00980531
H               1.69627653      1.19115481      0.90532331     -0.79598878      0.03390291     -0.28193947     -0.06592477      0.98773189      0.86949274       1       0       0       0      19     -0.03523420      0.15058654      0.20199830    -16.66251105      0.00337632     -0.00256716     -0.00120381     -0.00249442
H               2.85521759      0.01059977      0.01056186     -0.31185103     -0.41557069     -0.08813917     -0.65869152      0.71712952      0.49794926       1       0       0       0      15      0.37609256      0.30115773      0.16954397    -16.59377198      0.00303447     -0.00095544     -0.00035001     -0.00042518
H              -0.22911930     -0.00749874      0.01828044     -0.24178677      0.34712648      0.04521078     -0.55752186      0.19174938     -0.04621524       1       0       0       0      14     -0.02761258      0.08146827     -0.17200758    -15.88848727      0.01551950     -0.00965192      0.00189343     -0.00437599
H               0.90362017     -1.16879385     -0.93879900     -0.33644872      0.47786049     -0.31053392     -0.20521585     -0.78714452     -0.64065039       1       0       0       0      19     -0.29522386      0.04850301      0.05196082    -17.04466134      0.00568431      0.00347363     -0.00040541     -0.00080613
9
EPS_SCF=0.00000100 energy=-1401.8839956729967 units=gap_units Integrated_spin_density=0.00006551 opt_dir=/home/tks32/dft_pbe/apr_8_opt_fragments_subset/singlepoint_1_CO2 time=2.00000000 free_energy=-1401.67462158 cutoff=8.00000000 nneightol=1.20000000 pbc="T T T" Lattice="13.00000000       0.00000000       0.00000000       0.00000000       9.00000000       0.00000000       0.00000000       0.00000000       9.00000000" Properties=species:S:1:pos:R:3:momenta:R:3:forces:R:3:Z:I:1:map_shift:I:3:n_neighb:I:1:force:R:3:local_energy:R:1:gap_var:R:1:gap_variance_gradient:R:3
C              -2.55503662     -0.00283756     -0.00821046      4.18961870      0.58808281     -0.21318432     -0.79890505     -2.84338816     -0.68243680       6       0       0       0      11     -0.59256794     -1.16720520     -0.17717021   -152.63770073      0.00515546      0.00492063      0.00185340      0.00076425
O              -2.68386228     -1.12401051     -0.31268233      5.83658565      1.45276544      0.57954698      0.20674923     -1.14170949     -0.40303280       8       0       0       0      13      0.23408098     -1.07543806     -0.36637617   -437.70639599      0.00359956      0.00214417      0.00817518      0.00166160
O              -2.43031184      1.09861445      0.31125866      5.41636925     -1.94633903     -0.19699841      1.26652863      3.89976846      1.10538090       8       0       0       0      14      1.05508467      2.14324767      0.57565294   -438.29409973      0.00500583      0.01712246     -0.01538572     -0.00257400
C               1.80487067      0.32315152      0.25311370     -6.24674736      0.78628328      0.40527052      2.06040657     -1.91621692     -1.48368732       6       0       0       0      13      0.81579422      0.42412818      0.22674463   -154.08119599      0.00324222     -0.00149396     -0.00093191     -0.00085400
C               0.74355821     -0.35202998     -0.22534572     -7.31324149     -1.43031665     -0.05102324      0.01704591      0.38986945      0.41079465       6       0       0       0      14     -1.19896986     -0.99248826     -0.80257439   -153.07592717      0.00664452     -0.01398953      0.00930349      0.00996649
H               1.65379163      1.19959475      0.89645147     -0.85381452      0.13773793     -0.15637603      0.06415122      1.25600432      1.09991196       1       0       0       0      19      0.13758921     -0.00242210      0.13191910    -16.69888300      0.00364043     -0.00245765     -0.00075756     -0.00213475
H               2.82845015     -0.01554365      0.01521775     -0.38501136     -0.32317112     -0.01488909     -1.43157696      1.24656717      0.84923773       1       0       0       0      15      0.20828251      0.51041613      0.32041647    -16.58987869      0.00303152     -0.00131751     -0.00074866     -0.00074371
H              -0.24328514      0.02422431      0.03753787     -0.28824680      0.35728396      0.04430368     -1.18585879      0.31792362      0.06089582       1       0       0       0      14     -0.28754838      0.09042099     -0.14003044    -15.73458885      0.01598673     -0.01069059      0.00021472     -0.00398418
H               0.88182521     -1.15116333     -0.96734094     -0.35551208      0.37767338     -0.39665010     -0.19854076     -1.20881845     -0.95706415       1       0       0       0      19     -0.37174541      0.06934065      0.23141807    -17.06532552      0.00587707      0.00576197     -0.00172295     -0.00210168
9
EPS_SCF=0.00000100 energy=-1401.8975771428532 units=gap_units Integrated_spin_density=0.00006551 opt_dir=/home/tks32/dft_pbe/apr_8_opt_fragments_subset/singlepoint_1_CO2 time=3.00000000 free_energy=-1401.55056824 cutoff=8.00000000 nneightol=1.20000000 pbc="T T T" Lattice="13.00000000       0.00000000       0.00000000       0.00000000       9.00000000       0.00000000       0.00000000       0.00000000       9.00000000" Properties=species:S:1:pos:R:3:momenta:R:3:forces:R:3:Z:I:1:map_shift:I:3:n_neighb:I:1:force:R:3:local_energy:R:1:gap_var:R:1:gap_variance_gradient:R:3
C              -2.50043676     -0.00711471     -0.00930443      4.07138753      0.41386169     -0.24725092     -0.72950985     -3.96429592     -1.00782828       6       0       0       0      11     -0.35401254     -1.11480087     -0.11718409   -152.80513810      0.00542272      0.00493155      0.00437620      0.00175156
O              -2.62598389     -1.12922403     -0.29150146      5.81442161      1.19913423      0.56414338     -0.20010234     -2.03571284     -0.69468309       8       0       0       0      13     -0.06390382     -1.80355141     -0.57860461   -437.69267607      0.00356082      0.00664897      0.01076185      0.00193791
O              -2.37747892      1.09283929      0.29693585      5.46339130     -1.55894459     -0.17210227      1.21590921      5.90540747      1.70951904       8       0       0       0      14      0.88999511      2.81418322      0.71885408   -438.19153200      0.00565030      0.01439964     -0.01627458     -0.00284802
C               1.77753083      0.31895952      0.25719285     -5.92234737      0.68982411      0.20405339      1.60892804     -2.52755940     -1.84248447       6       0       0       0      13      0.73428815      0.17113221      0.06078381   -154.13202472      0.00357701     -0.00615132     -0.00068785     -0.00129609
C               0.70862674     -0.36832717     -0.21593079     -7.30574219     -1.44656198      0.13345850      1.30949159      0.71403671      0.47981591       6       0       0       0      14     -0.57483587     -0.79200754     -0.94457659   -153.12313535      0.00682941     -0.01305703      0.00970591      0.00939700
H               1.61266323      1.20591940      0.88908247     -0.84230628      0.21153957     -0.06415624      0.30427320      1.00629956      0.94965096       1       0       0       0      19      0.23994312     -0.14013471      0.07955073    -16.72973520      0.00390716     -0.00213303     -0.00047217     -0.00177282
H               2.80133332     -0.04017432      0.02623562     -0.51883287     -0.21330493      0.04821430     -1.73761583      1.57895576      1.04365547       1       0       0       0      15      0.08103561      0.67464855      0.43049875    -16.57996301      0.00303382     -0.00156861     -0.00101769     -0.00104774
H              -0.25715751      0.05690454      0.04739915     -0.40903545      0.41494358      0.02540587     -1.49353444      0.40290776      0.14159045       1       0       0       0      14     -0.47909507      0.10457002     -0.07792950    -15.58182935      0.01627340     -0.01065643     -0.00297314     -0.00259906
H               0.86090295     -1.12978253     -1.00010925     -0.35093626      0.28950832     -0.49176601     -0.27783958     -1.08003911     -0.77923599       1       0       0       0      19     -0.47341469      0.08596051      0.42860741    -17.06154334      0.00604355      0.00758625     -0.00341853     -0.00352274
9
EPS_SCF=0.00000100 energy=-1401.8743755146277 units=gap_units Integrated_spin_density=0.00006551 opt_dir=/home/tks32/dft_pbe/apr_8_opt_fragments_subset/singlepoint_1_CO2 time=4.00000000 free_energy=-1401.44746234 cutoff=8.00000000 nneightol=1.20000000 pbc="T T T" Lattice="13.00000000       0.00000000       0.00000000       0.00000000       9.00000000       0.00000000       0.00000000       0.00000000       9.00000000" Properties=species:S:1:pos:R:3:momenta:R:3:forces:R:3:Z:I:1:map_shift:I:3:n_neighb:I:1:force:R:3:local_energy:R:1:gap_var:R:1:gap_variance_gradient:R:3
C              -2.44715066     -0.01166673     -0.00870735      3.83401644      0.10215286     -0.30272091     -0.75647870     -4.47581160     -1.19155721       6       0       0       0      11     -0.23371925     -0.93382964     -0.04600978   -152.98567959      0.00569717      0.00614920      0.00688340      0.00257178
O              -2.56839642     -1.13655232     -0.26830804      5.85595134      1.02640977      0.45889368     -0.47036453     -2.92120069     -0.97914372       8       0       0       0      13     -0.25426306     -2.25739494     -0.69805127   -437.68658455      0.00358058      0.00940296      0.01231885      0.00170644
O              -2.32441039      1.09019840      0.28372533      5.57674072     -0.91675655      0.05513117      0.95230845      7.34604293      2.15065098       8       0       0       0      14      0.49490952      3.14799691      0.74531599   -438.09661977      0.00617282      0.01005747     -0.01537793     -0.00253040
C               1.74983119      0.31406326      0.26112751     -5.80104505      0.35788733     -0.01122505      0.43910267     -2.65851440     -1.84838987       6       0       0       0      13      0.51685987     -0.16045025     -0.13604679   -154.17574465      0.00399222     -0.00755632     -0.00029412     -0.00175015
C               0.67371317     -0.38590398     -0.20849966     -7.08094126     -1.40037582      0.12574407      2.29954060      1.04792506      0.33780985       6       0       0       0      14      0.16721483     -0.53954451     -1.06181496   -153.13994305      0.00706262     -0.00992382      0.00924941      0.00819890
H               1.57410854      1.21115936      0.88140383     -0.79038513      0.29900812      0.01256534      0.74239993      0.38161103      0.53951527       1       0       0       0      19      0.40921339     -0.21606598      0.07418121    -16.75063955      0.00420965     -0.00360182     -0.00039801     -0.00171507
H               2.77415871     -0.06134900      0.04351062     -0.68298578     -0.06848502      0.13455189     -1.59750662      1.69495291      1.08629721       1       0       0       0      15      0.00712113      0.78116657      0.48963116    -16.56899883      0.00303885     -0.00160513     -0.00110072     -0.00127417
H              -0.27059804      0.08822548      0.04944810     -0.54448456      0.42301594      0.03037325     -1.16525455      0.24058734      0.11549849       1       0       0       0      14     -0.53972741      0.08312584     -0.00568083    -15.42841629      0.01630502     -0.01164848     -0.00618909     -0.00042195
H               0.83874390     -1.10817447     -1.03370035     -0.36686672      0.17714336     -0.50331344     -0.44374724     -0.65559258     -0.21068101       1       0       0       0      19     -0.56760902      0.09499600      0.63847529    -17.04174925      0.00617449      0.00872594     -0.00509178     -0.00478539
9
EPS_SCF=0.00000100 energy=-1401.8099283591600 units=gap_units Integrated_spin_density=0.00006551 opt_dir=/home/tks32/dft_pbe/apr_8_opt_fragments_subset/singlepoint_1_CO2 time=5.00000000 free_energy=-1401.34185730 cutoff=8.00000000 nneightol=1.20000000 pbc="T T T" Lattice="13.00000000       0.00000000       0.00000000       0.00000000       9.00000000       0.00000000       0.00000000       0.00000000       9.00000000" Properties=species:S:1:pos:R:3:momenta:R:3:forces:R:3:Z:I:1:map_shift:I:3:n_neighb:I:1:force:R:3:local_energy:R:1:gap_var:R:1:gap_variance_gradient:R:3
C              -2.39540253     -0.01634045     -0.00648621      3.65034013     -0.26394012     -0.45399097     -0.85835256     -3.84630863     -1.04632120       6       0       0       0      11     -0.31330508     -0.49900308      0.06573740   -153.15790862      0.00597632      0.00809580      0.00830305      0.00261749
O              -2.51270109     -1.14452206     -0.24516023      5.67886877      0.51872535      0.32313584     -0.58112975     -3.74934489     -1.23641473       8       0       0       0      13     -0.35795862     -2.46226877     -0.73001366   -437.68262103      0.00364239      0.01015942      0.01259125      0.00103269
O              -2.27009652      1.09087606      0.27384218      5.56681262      0.00639366      0.23174546      0.41707803      7.67174886      2.25093872       8       0       0       0      14     -0.05409028      3.03401298      0.65169649   -438.02129380      0.00657345      0.00502114     -0.01315981     -0.00188255
C               1.72152508      0.30917053      0.26444695     -5.65370070      0.16709423     -0.13705955     -0.93536068     -2.28856532     -1.53465339       6       0       0       0      13      0.34099843     -0.57952771     -0.35668043   -154.20561123      0.00435405     -0.00706693      0.00005249     -0.00230487
C               0.63933256     -0.40444126     -0.20422884     -6.65067701     -1.34894459      0.20491727      2.67646047      1.52320041      0.11226271       6       0       0       0      14      0.83872313     -0.16909325     -1.09018332   -153.14063088      0.00717966     -0.00562937      0.00788593      0.00655460
H               1.53818899      1.21581237      0.87292192     -0.71443047      0.30197197      0.07206222      1.18893813     -0.40118918      0.02163459       1       0       0       0      19      0.58315467     -0.22080806      0.10755949    -16.76031002      0.00457809     -0.00350498      0.00008046     -0.00133645
H               2.74732609     -0.07686194      0.06739826     -0.81175678      0.09106857      0.19400007     -0.94097474      1.52892808      0.97588576       1       0       0       0      15     -0.01173034      0.82219636      0.49825046    -16.55970863      0.00304452     -0.00133441     -0.00097329     -0.00137170
H              -0.28364825      0.11471307      0.04336514     -0.62076290      0.40360439      0.04915803     -0.34630828     -0.25048393     -0.04128985       1       0       0       0      14     -0.49308357      0.01222117      0.06205257    -15.27176200      0.01619144     -0.01492745     -0.00824585      0.00235359
H               0.81547568     -1.08840632     -1.06609917     -0.44469366      0.12402654     -0.48396837     -0.62035063     -0.18798540      0.49795738       1       0       0       0      19     -0.53270834      0.06227036      0.79158100    -17.01008216      0.00627406      0.00918679     -0.00653423     -0.00566281
9
EPS_SCF=0.00000100 energy=-1401.6904635047613 units=gap_units Integrated_spin_density=0.00006551 opt_dir=/home/tks32/dft_pbe/apr_8_opt_fragments_subset/singlepoint_1_CO2 time=6.00000000 free_energy=-1401.15646345 cutoff=8.00000000 nneightol=1.20000000 pbc="T T T" Lattice="13.00000000       0.00000000       0.00000000       0.00000000       9.00000000       0.00000000       0.00000000       0.00000000       9.00000000" Properties=species:S:1:pos:R:3:momenta:R:3:forces:R:3:Z:I:1:map_shift:I:3:n_neighb:I:1:force:R:3:local_energy:R:1:gap_var:R:1:gap_variance_gradient:R:3
C              -2.34540777     -0.01993657     -0.00353522      3.44040887     -0.73444560     -0.48257399     -1.08994558     -2.02998433     -0.53927024       6       0       0       0      11     -0.64878999      0.07130853      0.18826906   -153.30650632      0.00631148      0.01171724      0.00853215      0.00202626
O              -2.46023906     -1.14977250     -0.23047438      5.56433060      0.23507098      0.19688949     -0.58295557     -4.52071845     -1.45151581       8       0       0       0      13     -0.30639764     -2.49111914     -0.73703091   -437.67454212      0.00371527      0.00969604      0.01214214      0.00039264
O              -2.21409376      1.09292772      0.27321019      5.50466521      0.75119573      0.39936073     -0.36758255      6.83543406      1.98809730       8       0       0       0      15     -0.70835986      2.66791901      0.53109544   -437.95486983      0.00683398      0.00235353     -0.01204698     -0.00211209
C               1.69255308      0.30580691      0.26538338     -5.66227291      0.11548816     -0.25044162     -2.29327118     -1.69526041     -1.09123715       6       0       0       0      13      0.35110604     -1.06920726     -0.57933298   -154.21113732      0.00460064     -0.00736870     -0.00011333     -0.00304622
C               0.60626313     -0.42327424     -0.20325790     -6.33658310     -1.21289169      0.17536752      2.55437441      2.16332940     -0.02746076       6       0       0       0      15      1.45057495      0.31250586     -0.97249025   -153.14071919      0.00710658     -0.00215638      0.00614154      0.00480047
H               1.50528605      1.22205383      0.86077400     -0.58998536      0.19816171      0.05981090      1.45894146     -0.98926402     -0.37595699       1       0       0       0      19      0.68577235     -0.16858843      0.15501714    -16.76345352      0.00488167     -0.00098002      0.00098504     -0.00054722
H               2.72137677     -0.08431138      0.09586568     -0.82991461      0.16353986      0.27484889      0.24074476      1.05676726      0.71432274       1       0       0       0      15      0.00939627      0.80240091      0.46460667    -16.55505258      0.00305026     -0.00075014     -0.00066717     -0.00131695
H              -0.29630510      0.13187279      0.03346829     -0.60736388      0.38767575      0.02541723      0.79495426     -0.97728598     -0.29820946       1       0       0       0      15     -0.37721783     -0.08996833      0.11065587    -15.11223606      0.01618987     -0.02048170     -0.00855032      0.00515177
H               0.79056666     -1.07536655     -1.09143404     -0.48328484      0.09620511     -0.39867914     -0.71526001      0.15698246      1.08123039       1       0       0       0      20     -0.45608429     -0.03525115      0.83920996    -16.97194656      0.00636984      0.00797013     -0.00642308     -0.00534866
9
EPS_SCF=0.00000100 energy=-1401.5135667118377 units=gap_units Integrated_spin_density=0.00006551 opt_dir=/home/tks32/dft_pbe/apr_8_opt_fragments_subset/singlepoint_1_CO2 time=7.00000000 free_energy=-1400.86733605 cutoff=8.00000000 nneightol=1.20000000 pbc="T T T" Lattice="13.00000000       0.00000000       0.00000000       0.00000000       9.00000000       0.00000000       0.00000000       0.00000000       9.00000000" Properties=species:S:1:pos:R:3:momenta:R:3:forces:R:3:Z:I:1:map_shift:I:3:n_neighb:I:1:force:R:3:local_energy:R:1:gap_var:R:1:gap_variance_gradient:R:3
C              -2.29734640     -0.02184753     -0.00150247      3.31876121     -0.75616810     -0.48184389     -1.42852142      0.54707180      0.21831118       6       0       0       0      11     -1.15664181      0.46186016      0.27623598   -153.42011448      0.00676054      0.01714693      0.00816078      0.00114671
O              -2.41005143     -1.15211278     -0.23014059      5.44871454     -0.34101692      0.07570663     -0.65642250     -5.29004395     -1.67432059       8       0       0       0      13     -0.27282067     -2.38036512     -0.77620755   -437.67258910      0.00381979      0.01012657      0.01189270      0.00014278
O              -2.15845149      1.09394078      0.28341306      5.23543133      1.43623026      0.52406595     -0.99505371      5.11116173      1.44994267       8       0       0       0      15     -1.14705498      2.25082832      0.44815941   -437.88813373      0.00709458      0.00385733     -0.01193454     -0.00241723
C               1.66340613      0.30414237      0.26251295     -5.92735477      0.02980733     -0.46025183     -3.29929900     -1.00100449     -0.64975654       6       0       0       0      13      0.68263976     -1.31854557     -0.66492265   -154.17012862      0.00483387     -0.01216249     -0.00098084     -0.00405178
C               0.57645232     -0.43963731     -0.20362800     -5.88132034     -1.06564047      0.23448295      2.21999424      2.72147129     -0.15211192       6       0       0       0      15      1.76882936      0.73998267     -0.80409627   -153.14409312      0.00689307     -0.00035718      0.00460821      0.00333577
H               1.47761160      1.23070713      0.84395085     -0.40545984      0.05834586     -0.02811580      1.51379619     -1.21482962     -0.53646546       1       0       0       0      19      0.69414802     -0.10423139      0.18532636    -16.76636985      0.00505708      0.00171230      0.00206755      0.00017616
H               2.69683300     -0.08420162      0.12505280     -0.71680339      0.22959880      0.36886235      1.61980708      0.41929860      0.40156713       1       0       0       0      15      0.04336333      0.73608037      0.40286078    -16.55955900      0.00305656      0.00003106     -0.00025613     -0.00116209
H              -0.30834546      0.14087988      0.02675198     -0.49856818      0.27096309      0.05107255      1.81601061     -1.62472498     -0.53697017       1       0       0       0      15     -0.16742176     -0.21577440      0.12223636    -14.95538634      0.01651055     -0.02736606     -0.00742649      0.00760378
H               0.75989173     -1.07187092     -1.10641058     -0.57340058      0.13788016     -0.28397891     -0.79031149      0.33159963      1.47980370       1       0       0       0      20     -0.44504126     -0.16983504      0.81040758    -16.93719249      0.00650982      0.00701153     -0.00613125     -0.00477410
9
EPS_SCF=0.00000100 energy=-1401.3225696740653 units=gap_units Integrated_spin_density=0.00006551 opt_dir=/home/tks32/dft_pbe/apr_8_opt_fragments_subset/singlepoint_1_CO2 time=8.00000000 free_energy=-1400.63932447 cutoff=8.00000000 nneightol=1.20000000 pbc="T T T" Lattice="13.00000000       0.00000000       0.00000000       0.00000000       9.00000000       0.00000000       0.00000000       0.00000000       9.00000000" Properties=species:S:1:pos:R:3:momenta:R:3:forces:R:3:Z:I:1:map_shift:I:3:n_neighb:I:1:force:R:3:local_energy:R:1:gap_var:R:1:gap_variance_gradient:R:3
C              -2.25123911     -0.02345965     -0.00055521      3.22826183     -0.59332327     -0.40465234     -1.43961527      2.52564709      0.84108578       6       0       0       0      12     -1.31646840      0.69563262      0.35403743   -153.49866132      0.00739784      0.02340361      0.00775592      0.00021832
O              -2.36074783     -1.15523305     -0.23583859      5.08278534     -0.98661558     -0.23300479     -0.58609086     -5.46601848     -1.77024296       8       0       0       0      13     -0.20616494     -2.04867772     -0.78104582   -437.69557420      0.00398277      0.01043532      0.01159707      0.00018110
O              -2.10463738      1.09529419      0.29616934      5.05965592      1.90414592      0.59438627     -1.23343241      3.31170274      0.90250707       8       0       0       0      15     -1.33206936      1.71271428      0.35224078   -437.83294748      0.00740097      0.00619164     -0.01186093     -0.00255832
C               1.63429837      0.30238777      0.25747651     -6.07019905     -0.02107170     -0.38694009     -3.86014928     -0.54134813     -0.41059936       6       0       0       0      13      0.86675564     -1.29078208     -0.60529364   -154.08730183      0.00514566     -0.01724625     -0.00248567     -0.00517217