9
EPS_SCF=0.00000100 energy=-1401.8498565490638 units=gap_units Integrated_spin_density=0.00006551 opt_dir=/home/tks32/dft_pbe/apr_8_opt_fragments_subset/singlepoint_1_CO2 time=0.00000000 free_energy=-1401.84985654 cutoff=8.00000000 nneightol=1.20000000 pbc="T T T" Lattice="13.00000000       0.00000000       0.00000000       0.00000000       9.00000000       0.00000000       0.00000000       0.00000000       9.00000000" Properties=species:S:1:pos:R:3:momenta:R:3:forces:R:3:Z:I:1:map_shift:I:3:n_neighb:I:1:force:R:3:local_energy:R:1:gap_var:R:1:gap_variance_gradient:R:3
C              -2.66661630      0.00003508     -0.00008450      5.45409721      0.81308744     -0.21939016     -0.71616738      0.08149990      0.07809224       6       0       0       0      12     -0.71616740      0.08149946      0.07809209   -152.36801565      0.00469919      0.00753098     -0.00155187     -0.00082503
O              -2.79916745     -1.12388035     -0.32607284      6.91856637      1.60105312      0.69227000     -0.00977911      0.19278933      0.11863095       8       0       0       0      14     -0.00977908      0.19278975      0.11863108   -437.72026183      0.00376144     -0.00437837      0.00314623     -0.00002105
O              -2.53420761      1.12385113      0.32614266      6.44529771     -2.41414056     -0.47287984      0.60777930     -0.29930868     -0.09183242       8       0       0       0      14      0.60777928     -0.29930867     -0.09183241   -438.43012828      0.00381012      0.00944956     -0.00857660     -0.00114853
C               1.85829380      0.32653053      0.25008286     -5.69597901      0.88593916      0.41407752      0.57584133      0.68705914      0.43457040       6       0       0       0      15      0.57584140      0.68705888      0.43457017   -153.99792902      0.00306717      0.00582900     -0.00082158     -0.00063726
C               0.80837003     -0.32653266     -0.25007829     -6.07650281     -1.32504139      0.17494715     -0.90079645     -1.10620546     -0.51939980       6       0       0       0      14     -0.90079627     -1.10620558     -0.51939988   -153.07284990      0.00666219     -0.01240857      0.00762508      0.00899194
H               1.73876223      1.17877639      0.91904262     -0.67682574     -0.05175688     -0.30347750     -0.24543084      0.30760741      0.29124826       1       0       0       0      19     -0.24543082      0.30760755      0.29124838    -16.62958607      0.00316126     -0.00051773     -0.00123813     -0.00239676
H               2.88157783      0.03641793      0.01166621     -0.20088037     -0.43346916     -0.14053191      0.55674304      0.06718708     -0.00289936       1       0       0       0      15      0.55674287      0.06718716     -0.00289928    -16.58860884      0.00304409     -0.00057028      0.00009126     -0.00015559
H              -0.21491357     -0.03641919     -0.01166099     -0.11295227      0.37406457      0.09108301      0.27576887      0.09625598     -0.16517844       1       0       0       0      14      0.27576879      0.09625601     -0.16517842    -16.04784753      0.01509267     -0.00624351      0.00130748     -0.00380807
H               0.92790105     -1.17877889     -0.91903774     -0.29107960      0.55026370     -0.23609827     -0.14395874     -0.02688471     -0.14323184       1       0       0       0      19     -0.14395877     -0.02688457     -0.14323174    -16.99462942      0.00546950      0.00130894      0.00001814      0.00000035
9
EPS_SCF=0.00000100 energy=-1401.8709821972548 units=gap_units Integrated_spin_density=0.00006551 opt_dir=/home/tks32/dft_pbe/apr_8_opt_fragments_subset/singlepoint_1_CO2 time=1.00000000 free_energy=-1401.80709005 cutoff=8.00000000 nneightol=1.20000000 pbc="T T T" Lattice="13.00000000       0.00000000       0.00000000       0.00000000       9.00000000       0.00000000       0.00000000       0.00000000       9.00000000" Properties=species:S:1:pos:R:3:momenta:R:3:forces:R:3:Z:I:1:map_shift:I:3:n_neighb:I:1:force:R:3:local_energy:R:1:gap_var:R:1:gap_variance_gradient:R:3
C              -2.61527097      0.00010912     -0.00395015      4.33379230      0.85202192     -0.22813873     -0.81150355     -1.42441597     -0.30617401       6       0       0       0      11     -0.64360038     -0.20126426      0.04563920   -152.42126372      0.00487224      0.00662789     -0.00088141     -0.00020895
O              -2.75003477     -1.12037484     -0.33967696      5.68534428      1.50966954      0.73141744      0.19302939     -0.43047360     -0.13568442       8       0       0       0      13      0.24520107      0.05317260      0.00428155   -437.74296183      0.00368765     -0.00283561      0.00395166      0.00061107
O              -2.48346033      1.11444962      0.33975639      5.35278514     -2.29325472     -0.34703573      1.03688060      1.78035087      0.48871193       8       0       0       0      14      0.80355854      0.08189133      0.00062428   -438.42608681      0.00423396      0.01489781     -0.01079005     -0.00164208
C               1.83042829      0.32773047      0.24489931     -6.49319712      0.97275051      0.38506449      1.63794139     -0.77819499     -0.70970603       6       0       0       0      13      0.71327044      0.67304963      0.43482931   -154.02471183      0.00309228      0.00354293     -0.00114117     -0.00062389
C               0.78079356     -0.33493649     -0.24645290     -7.19264930     -1.48450644      0.09409432     -0.56899382     -0.25673259     -0.01772384       6       0       0       0      14     -1.11372051     -1.19422526     -0.62144873   -153.04056316      0.00655936     -0.01425501      0.00807845      0.00991940
H               1.71011661      1.19228982      0.89988964     -0.79598878      0.03390291     -0.28193947     -0.06592477      0.98773189      0.86949274       1       0       0       0      19     -0.21209527      0.24796688      0.24538060    -16.66188080      0.00335055     -0.00207632     -0.00138579     -0.00254990
H               2.85819804      0.02830352      0.02521855     -0.31185103     -0.41557069     -0.08813917     -0.65869152      0.71712952      0.49794926       1       0       0       0      15      0.49719167      0.12377282      0.01880851    -16.59800784      0.00304199     -0.00090897     -0.00000220     -0.00018977
H              -0.22756536     -0.02573262      0.00633636     -0.24178677      0.34712648      0.04521078     -0.55752186      0.19174938     -0.04621524       1       0       0       0      14     -0.07988147      0.18551853     -0.10712309    -15.90329772      0.01542160     -0.00823041      0.00215545     -0.00494594
H               0.89679495     -1.18183860     -0.92602025     -0.33644872      0.47786049     -0.31053392     -0.20521585     -0.78714452     -0.64065039       1       0       0       0      19     -0.20992409      0.03011773     -0.02099162    -17.05220850      0.00565288      0.00323770      0.00001506     -0.00036994
9
EPS_SCF=0.00000100 energy=-1401.9157503087115 units=gap_units Integrated_spin_density=0.00006551 opt_dir=/home/tks32/dft_pbe/apr_8_opt_fragments_subset/singlepoint_1_CO2 time=2.00000000 free_energy=-1401.67462158 cutoff=8.00000000 nneightol=1.20000000 pbc="T T T" Lattice="13.00000000       0.00000000       0.00000000       0.00000000       9.00000000       0.00000000       0.00000000       0.00000000       9.00000000" Properties=species:S:1:pos:R:3:momenta:R:3:forces:R:3:Z:I:1:map_shift:I:3:n_neighb:I:1:force:R:3:local_energy:R:1:gap_var:R:1:gap_variance_gradient:R:3
C              -2.56866507     -0.00118837      0.00583852      4.18961870      0.58808281     -0.21318432     -0.79890505     -2.84338816     -0.68243680       6       0       0       0      11     -0.67619961     -1.05024571     -0.29375607   -152.56822277      0.00515830      0.00506724      0.00159741     -0.00022369
O              -2.70470439     -1.11840372     -0.32267838      5.83658565      1.45276544      0.57954698      0.20674923     -1.14170949     -0.40303280       8       0       0       0      13      0.31762889     -0.70090077     -0.19614298   -437.74304565      0.00361176      0.00032052      0.00660738      0.00129253
O              -2.43695720      1.10428121      0.32485364      5.41636925     -1.94633903     -0.19699841      1.26652863      3.89976846      1.10538090       8       0       0       0      14      1.00564426      1.66413182      0.50461452   -438.33260626      0.00479991      0.01830035     -0.01445755     -0.00276468
C               1.80607884      0.32144699      0.24952087     -6.24674736      0.78628328      0.40527052      2.06040657     -1.91621692     -1.48368732       6       0       0       0      13     -0.14338913      0.07829435     -0.02749677   -154.17162343      0.00322404      0.00069864     -0.00027019     -0.00098897
C               0.73326434     -0.37265586     -0.24032248     -7.31324149     -1.43031665     -0.05102324      0.01704591      0.38986945      0.41079465       6       0       0       0      14      0.09353748      0.19459843      0.23668307   -153.15503775      0.00667890     -0.02026054      0.00834182      0.00721673
H               1.68395475      1.19905294      0.89032440     -0.85381452      0.13773793     -0.15637603      0.06415122      1.25600432      1.09991196       1       0       0       0      19     -0.13997245      0.19514827      0.26673041    -16.66527299      0.00355436     -0.00183266     -0.00091914     -0.00224196
H               2.83678856      0.01906634      0.04298771     -0.38501136     -0.32317112     -0.01488909     -1.43157696      1.24656717      0.84923773       1       0       0       0      15      0.48736108      0.11559766      0.03798163    -16.56364769      0.00304716     -0.00076372      0.00008671     -0.00020161
H              -0.23548352     -0.00121949     -0.00116373     -0.28824680      0.35728396      0.04430368     -1.18585879      0.31792362      0.06089582       1       0       0       0      14     -0.79610413      0.31252153      0.06042784    -15.72920035      0.01585151     -0.00683284     -0.00232198     -0.00276381
H               0.88572370     -1.15038005     -0.94936055     -0.35551208      0.37767338     -0.39665010     -0.19854076     -1.20881845     -0.95706415       1       0       0       0      19     -0.14850641     -0.80914557     -0.58904165    -16.98709342      0.00583777      0.00530300      0.00133555      0.00067545
9
EPS_SCF=0.00000100 energy=-1401.9522592285698 units=gap_units Integrated_spin_density=0.00006551 opt_dir=/home/tks32/dft_pbe/apr_8_opt_fragments_subset/singlepoint_1_CO2 time=3.00000000 free_energy=-1401.55056824 cutoff=8.00000000 nneightol=1.20000000 pbc="T T T" Lattice="13.00000000       0.00000000       0.00000000       0.00000000       9.00000000       0.00000000       0.00000000       0.00000000       9.00000000" Properties=species:S:1:pos:R:3:momenta:R:3:forces:R:3:Z:I:1:map_shift:I:3:n_neighb:I:1:force:R:3:local_energy:R:1:gap_var:R:1:gap_variance_gradient:R:3
C              -2.51853627     -0.00781750      0.00563128      4.07138753      0.41386169     -0.24725092     -0.72950985     -3.96429592     -1.00782828       6       0       0       0      11     -0.54669651     -1.70842774     -0.48044305   -152.67479564      0.00528179      0.00353969      0.00434709      0.00020483
O              -2.64221390     -1.12697761     -0.32977558      5.81442161      1.19913423      0.56414338     -0.20010234     -2.03571284     -0.69468309       8       0       0       0      13      0.19386379     -0.71001741     -0.25838633   -437.77419016      0.00351762      0.00476494      0.00775501      0.00121801
O              -2.39887093      1.08867290      0.33761959      5.46339130     -1.55894459     -0.17210227      1.21590921      5.90540747      1.70951904       8       0       0       0      14      0.93034204      2.29402977      0.70378643   -438.25900113      0.00538638      0.01764587     -0.01449118     -0.00325473
C               1.77976047      0.31600570      0.24607295     -5.92234737      0.68982411      0.20405339      1.60892804     -2.52755940     -1.84248447       6       0       0       0      13      0.30399108      0.17335128      0.08026365   -154.17602977      0.00348171     -0.00487899     -0.00047631     -0.00202385
C               0.70495082     -0.37119235     -0.23744044     -7.30574219     -1.44656198      0.13345850      1.30949159      0.71403671      0.47981591       6       0       0       0      14      0.08337601     -0.04951277     -0.08172719   -153.15803297      0.00673514     -0.01784731      0.00949578      0.00659322
H               1.66531773      1.21272707      0.86605619     -0.84230628      0.21153957     -0.06415624      0.30427320      1.00629956      0.94965096       1       0       0       0      19     -0.17275432      0.08525303      0.19611900    -16.69911466      0.00372348     -0.00138400     -0.00076091     -0.00216279
H               2.81118879     -0.01189739      0.07114510     -0.51883287     -0.21330493      0.04821430     -1.73761583      1.57895576      1.04365547       1       0       0       0      15      0.43409514      0.18154973      0.06714106    -16.57949508      0.00304694     -0.00145361      0.00020256     -0.00038275
H              -0.24604057      0.04761699      0.00024139     -0.40903545      0.41494358      0.02540587     -1.49353444      0.40290776      0.14159045       1       0       0       0      14     -0.92802350      0.39426525      0.13234325    -15.59996966      0.01618395     -0.00698063     -0.00549598      0.00042867
H               0.84444387     -1.14713782     -0.95955048     -0.35093626      0.28950832     -0.49176601     -0.27783958     -1.08003911     -0.77923599       1       0       0       0      19     -0.29819373     -0.66049115     -0.35909682    -17.03163016      0.00592404      0.00659403     -0.00057607     -0.00062062
9
EPS_SCF=0.00000100 energy=-1401.9795748334463 units=gap_units Integrated_spin_density=0.00006551 opt_dir=/home/tks32/dft_pbe/apr_8_opt_fragments_subset/singlepoint_1_CO2 time=4.00000000 free_energy=-1401.44746234 cutoff=8.00000000 nneightol=1.20000000 pbc="T T T" Lattice="13.00000000       0.00000000       0.00000000       0.00000000       9.00000000       0.00000000       0.00000000       0.00000000       9.00000000" Properties=species:S:1:pos:R:3:momenta:R:3:forces:R:3:Z:I:1:map_shift:I:3:n_neighb:I:1:force:R:3:local_energy:R:1:gap_var:R:1:gap_variance_gradient:R:3
C              -2.46897650     -0.01619692      0.00821516      3.83401644      0.10215286     -0.30272091     -0.75647870     -4.47581160     -1.19155721       6       0       0       0      11     -0.36809208     -1.74840427     -0.47616572   -152.80221869      0.00538256      0.00353741      0.00672428      0.00023881
O              -2.58049985     -1.14041110     -0.31965294      5.85595134      1.02640977      0.45889368     -0.47036453     -2.92120069     -0.97914372       8       0       0       0      13      0.01027711     -0.71091344     -0.28671902   -437.80780371      0.00350074      0.00838401      0.00842813      0.00069207
O              -2.35810496      1.08091937      0.34028968      5.57674072     -0.91675655      0.05513117      0.95230845      7.34604293      2.15065098       8       0       0       0      14      0.61121292      2.37178241      0.71079535   -438.20105592      0.00591034      0.01390043     -0.01274592     -0.00325874
C               1.75289581      0.30889803      0.24661010     -5.80104505      0.35788733     -0.01122505      0.43910267     -2.65851440     -1.84838987       6       0       0       0      13      0.52449912      0.11987662      0.08748695   -154.18688295      0.00384404     -0.00779452     -0.00005542     -0.00301621
C               0.67441048     -0.37364969     -0.23656160     -7.08094126     -1.40037582      0.12574407      2.29954060      1.04792506      0.33780985       6       0       0       0      14      0.41525679     -0.14629807     -0.31311598   -153.15128010      0.00687483     -0.01446652      0.01003555      0.00497796
H               1.64406630      1.22206701      0.84852457     -0.79038513      0.29900812      0.01256534      0.74239993      0.38161103      0.53951527       1       0       0       0      19     -0.18093137     -0.01368846      0.14831105    -16.72850921      0.00391019     -0.00132444     -0.00068393     -0.00209570
H               2.78476745     -0.04168409      0.10455981     -0.68298578     -0.06848502      0.13455189     -1.59750662      1.69495291      1.08629721       1       0       0       0      15      0.36758282      0.23548365      0.08905013    -16.58895942      0.00304890     -0.00182581      0.00038621     -0.00053941
H              -0.25664955      0.09592608     -0.01076709     -0.54448456      0.42301594      0.03037325     -1.16525455      0.24058734      0.11549849       1       0       0       0      14     -1.02410080      0.45534850      0.21443500    -15.46928771      0.01614538     -0.00674705     -0.00982301      0.00444893
H               0.80809083     -1.13586868     -0.98121769     -0.36686672      0.17714336     -0.50331344     -0.44374724     -0.65559258     -0.21068101       1       0       0       0      19     -0.35570451     -0.56318695     -0.17407777    -17.04357712      0.00602656      0.00633649     -0.00226590     -0.00144771
9
EPS_SCF=0.00000100 energy=-1401.9736109242151 units=gap_units Integrated_spin_density=0.00006551 opt_dir=/home/tks32/dft_pbe/apr_8_opt_fragments_subset/singlepoint_1_CO2 time=5.00000000 free_energy=-1401.34185730 cutoff=8.00000000 nneightol=1.20000000 pbc="T T T" Lattice="13.00000000       0.00000000       0.00000000       0.00000000       9.00000000       0.00000000       0.00000000       0.00000000       9.00000000" Properties=species:S:1:pos:R:3:momenta:R:3:forces:R:3:Z:I:1:map_shift:I:3:n_neighb:I:1:force:R:3:local_energy:R:1:gap_var:R:1:gap_variance_gradient:R:3
C              -2.42011002     -0.02505814      0.01362837      3.65034013     -0.26394012     -0.45399097     -0.85835256     -3.84630863     -1.04632120       6       0       0       0      11     -0.31338451     -1.34198372     -0.33655798   -152.93445335      0.00549869      0.00497431      0.00841013      0.00001920
O              -2.52110250     -1.15594030     -0.29763040      5.67886877      0.51872535      0.32313584     -0.58112975     -3.74934489     -1.23641473       8       0       0       0      13     -0.11470729     -0.64747809     -0.27162587   -437.83074545      0.00354695      0.00971664      0.00832700     -0.00000573
O              -2.31352727      1.07949024      0.33762887      5.56681262      0.00639366      0.23174546      0.41707803      7.67174886      2.25093872       8       0       0       0      14      0.15575352      1.98075625      0.55883126   -438.15550624      0.00630325      0.00920465     -0.00966008     -0.00273178
C               1.72544447      0.30123269      0.25017336     -5.65370070      0.16709423     -0.13705955     -0.93536068     -2.28856532     -1.53465339       6       0       0       0      13      0.56613326     -0.12461124     -0.03081272   -154.20610576      0.00420701     -0.00794898      0.00070126     -0.00377158
C               0.64132581     -0.38116593     -0.23851665     -6.65067701     -1.34894459      0.20491727      2.67646047      1.52320041      0.11226271       6       0       0       0      14      0.84606454      0.03725325     -0.34348614   -153.14594822      0.00697669     -0.01038548      0.00937654      0.00240166
H               1.61952929      1.22871879      0.83513751     -0.71443047      0.30197197      0.07206222      1.18893813     -0.40118918      0.02163459       1       0       0       0      19     -0.12151185     -0.06264561      0.14092834    -16.75132626      0.00414024     -0.00229623     -0.00070736     -0.00203375
H               2.75763387     -0.06850944      0.14292869     -0.81175678      0.09106857      0.19400007     -0.94097474      1.52892808      0.97588576       1       0       0       0      15      0.29714445      0.26948359      0.10104224    -16.59078840      0.00305334     -0.00173448      0.00061416     -0.00054872
H              -0.26762795      0.14037716     -0.03331045     -0.62076290      0.40360439      0.04915803     -0.34630828     -0.25048393     -0.04128985       1       0       0       0      14     -1.02109594      0.46714978      0.27407249    -15.33221954      0.01568069     -0.00751068     -0.01357659      0.00849859
H               0.77843430     -1.11914507     -1.01003931     -0.44469366      0.12402654     -0.48396837     -0.62035063     -0.18798540      0.49795738       1       0       0       0      19     -0.29439618     -0.57792421     -0.09239163    -17.02651771      0.00615675      0.00598026     -0.00348505     -0.00182789
9
EPS_SCF=0.00000100 energy=-1401.9114959839765 units=gap_units Integrated_spin_density=0.00006551 opt_dir=/home/tks32/dft_pbe/apr_8_opt_fragments_subset/singlepoint_1_CO2 time=6.00000000 free_energy=-1401.15646345 cutoff=8.00000000 nneightol=1.20000000 pbc="T T T" Lattice="13.00000000       0.00000000       0.00000000       0.00000000       9.00000000       0.00000000       0.00000000       0.00000000       9.00000000" Properties=species:S:1:pos:R:3:momenta:R:3:forces:R:3:Z:I:1:map_shift:I:3:n_neighb:I:1:force:R:3:local_energy:R:1:gap_var:R:1:gap_variance_gradient:R:3
C              -2.37345507     -0.02943052      0.01965812      3.44040887     -0.73444560     -0.48257399     -1.08994558     -2.02998433     -0.53927024       6       0       0       0      11     -0.52342675     -1.59374365     -0.45573600   -153.06330976      0.00570717      0.00816261      0.01002773     -0.00005535
O              -2.46441122     -1.17025419     -0.27601590      5.56433060      0.23507098      0.19688949     -0.58295557     -4.52071845     -1.45151581       8       0       0       0      13      0.03024960     -0.19674988     -0.13256688   -437.86059354      0.00361360      0.00918532      0.00754989     -0.00048819
O              -2.26701454      1.08310971      0.31831080      5.50466521      0.75119573      0.39936073     -0.36758255      6.83543406      1.98809730       8       0       0       0      15     -0.39397162      1.92837266      0.54978207   -438.07972698      0.00663609      0.00619479     -0.00820402     -0.00215500
C               1.69878379      0.29417205      0.25295494     -5.66227291      0.11548816     -0.25044162     -2.29327118     -1.69526041     -1.09123715       6       0       0       0      13      0.77867864     -0.39649000     -0.15049001   -154.21263303      0.00448709     -0.00790063      0.00089397     -0.00422685
C               0.60963332     -0.39549819     -0.23303212     -6.33658310     -1.21289169      0.17536752      2.55437441      2.16332940     -0.02746076       6       0       0       0      15      1.08972891      0.29523997     -0.35546211   -153.14238404      0.00696545     -0.00603109      0.00762539      0.00098813
H               1.59391254      1.22919807      0.83169252     -0.58998536      0.19816171      0.05981090      1.45894146     -0.98926402     -0.37595699       1       0       0       0      18     -0.02082253     -0.09719104      0.14030121    -16.76547137      0.00443471     -0.00298320     -0.00051741     -0.00181022
H               2.73308289     -0.08142485      0.16244869     -0.82991461      0.16353986      0.27484889      0.24074476      1.05676726      0.71432274       1       0       0       0      14      0.23510331      0.29028132      0.11356952    -16.59143856      0.00305953     -0.00144243      0.00081826     -0.00046088
H              -0.27865510      0.16801911     -0.03346046     -0.60736388      0.38767575      0.02541723      0.79495426     -0.97728598     -0.29820946       1       0       0       0      15     -0.90375396      0.38317758      0.27933297    -15.19566996      0.01535563     -0.01037131     -0.01425399      0.01013728
H               0.74812339     -1.09789120     -1.04255659     -0.48328484      0.09620511     -0.39867914     -0.71526001      0.15698246      1.08123039       1       0       0       0      20     -0.29178561     -0.61289696      0.01126922    -17.00026874      0.00629690      0.00518594     -0.00393982     -0.00192892
9
EPS_SCF=0.00000100 energy=-1401.8190627479901 units=gap_units Integrated_spin_density=0.00006551 opt_dir=/home/tks32/dft_pbe/apr_8_opt_fragments_subset/singlepoint_1_CO2 time=7.00000000 free_energy=-1400.86733605 cutoff=8.00000000 nneightol=1.20000000 pbc="T T T" Lattice="13.00000000       0.00000000       0.00000000       0.00000000       9.00000000       0.00000000       0.00000000       0.00000000       9.00000000" Properties=species:S:1:pos:R:3:momenta:R:3:forces:R:3:Z:I:1:map_shift:I:3:n_neighb:I:1:force:R:3:local_energy:R:1:gap_var:R:1:gap_variance_gradient:R:3
C              -2.32255690     -0.03381637      0.00746020      3.31876121     -0.75616810     -0.48184389     -1.42852142      0.54707180      0.21831118       6       0       0       0      11     -0.87626497     -0.81391152     -0.06552713   -153.13593003      0.00614660      0.01328371      0.00955384     -0.00031267
O              -2.40538540     -1.18580451     -0.27491287      5.44871454     -0.34101692      0.07570663     -0.65642250     -5.29004395     -1.67432059       8       0       0       0      13      0.12997161      0.60291832     -0.08388045   -437.91777479      0.00372378      0.00914117      0.00599647     -0.00090229
O              -2.21543905      1.09024390      0.32616410      5.23543133      1.43623026      0.52406595     -0.99505371      5.11116173      1.44994267       8       0       0       0      15     -1.17540896      0.43984934      0.08179278   -438.05313139      0.00690354      0.00493147     -0.00520533     -0.00147754
C               1.66885965      0.29378700      0.24730140     -5.92735477      0.02980733     -0.46025183     -3.29929900     -1.00100449     -0.64975654       6       0       0       0      13      2.87626871      0.11746841      0.36301364   -154.08146484      0.00469417     -0.01244257     -0.00042034     -0.00509295
C               0.59823309     -0.38000279     -0.23313217     -5.88132034     -1.06564047      0.23448295      2.21999424      2.72147129     -0.15211192       6       0       0       0      15     -0.09904494     -0.80285688     -1.43220017   -153.03811265      0.00680543      0.00014866      0.00792464      0.00326783
H               1.56552440      1.23409608      0.82172994     -0.40545984      0.05834586     -0.02811580      1.51379619     -1.21482962     -0.53646546       1       0       0       0      18      0.07368580     -0.11102736      0.10724673    -16.80679765      0.00474118     -0.00132450     -0.00002888     -0.00140683
H               2.70623222     -0.09337411      0.18092580     -0.71680339      0.22959880      0.36886235      1.61980708      0.41929860      0.40156713       1       0       0       0      14      0.08950786      0.37351540      0.11431788    -16.63207948      0.00306126     -0.00128380      0.00084560     -0.00049508
H              -0.29374031      0.18288498     -0.01351639     -0.49856818      0.27096309      0.05107255      1.81601061     -1.62472498     -0.53697017       1       0       0       0      15     -0.62600994      0.27560499      0.22894296    -15.10284399      0.01578990     -0.01680308     -0.01290489      0.01027726
H               0.69827231     -1.10801417     -1.06202002     -0.57340058      0.13788016     -0.28397891     -0.79031149      0.33159963      1.47980370       1       0       0       0      20     -0.39270518     -0.08156069      0.68629376    -17.05092793      0.00647934      0.00434894     -0.00576111     -0.00385773
9
EPS_SCF=0.00000100 energy=-1401.6072663449681 units=gap_units Integrated_spin_density=0.00006551 opt_dir=/home/tks32/dft_pbe/apr_8_opt_fragments_subset/singlepoint_1_CO2 time=8.00000000 free_energy=-1400.63932447 cutoff=8.00000000 nneightol=1.20000000 pbc="T T T" Lattice="13.00000000       0.00000000       0.00000000       0.00000000       9.00000000       0.00000000       0.00000000       0.00000000       9.00000000" Properties=species:S:1:pos:R:3:momenta:R:3:forces:R:3:Z:I:1:map_shift:I:3:n_neighb:I:1:force:R:3:local_energy:R:1:gap_var:R:1:gap_variance_gradient:R:3
C              -2.27734282     -0.03371103      0.00578915      3.22826183     -0.59332327     -0.40465234     -1.43961527      2.52564709      0.84108578       6       0       0       0      11     -1.06686553     -0.09576639      0.16612112   -153.21675636      0.00674528      0.01978058      0.00893878     -0.00078359
O              -2.36360497     -1.19125633     -0.25033934      5.08278534     -0.98661558     -0.23300479     -0.58609086     -5.46601848     -1.77024296       8       0       0       0      13      0.06489476      0.70495301     -0.13513525   -437.90784340      0.00386895      0.00922295      0.00587088     -0.00079534
O              -2.15574648      1.10409298      0.30753715      5.05965592      1.90414592      0.59438627     -1.23343241      3.31170274      0.90250707       8       0       0       0      15     -1.59242379     -0.29920161     -0.10499754   -437.98175209      0.00717628      0.00497218     -0.00478004     -0.00120866
C               1.64162243      0.29238257      0.24973015     -6.07019905     -0.02107170     -0.38694009     -3.86014928     -0.54134813     -0.41059936       6       0       0       0      13      2.93193619     -0.08318556      0.20842507   -154.04665170      0.00497505     -0.01754365     -0.00169845     -0.00573883