9
EPS_SCF=0.00000100 energy=-1401.8498565490638 units=gap_units Integrated_spin_density=0.00006551 opt_dir=/home/tks32/dft_pbe/apr_8_opt_fragments_subset/singlepoint_1_CO2 time=0.00000000 free_energy=-1401.84985654 cutoff=8.00000000 nneightol=1.20000000 pbc="T T T" Lattice="13.00000000       0.00000000       0.00000000       0.00000000       9.00000000       0.00000000       0.00000000       0.00000000       9.00000000" Properties=species:S:1:pos:R:3:momenta:R:3:forces:R:3:Z:I:1:map_shift:I:3:n_neighb:I:1:force:R:3:local_energy:R:1:gap_var:R:1:gap_variance_gradient:R:3
C              -2.66661630      0.00003508     -0.00008450      5.45409721      0.81308744     -0.21939016     -0.71616738      0.08149990      0.07809224       6       0       0       0      12     -0.71616740      0.08149946      0.07809209   -152.36801565      0.00469919      0.00753098     -0.00155187     -0.00082503
O              -2.79916745     -1.12388035     -0.32607284      6.91856637      1.60105312      0.69227000     -0.00977911      0.19278933      0.11863095       8       0       0       0      14     -0.00977908      0.19278975      0.11863108   -437.72026183      0.00376144     -0.00437837      0.00314623     -0.00002105
O              -2.53420761      1.12385113      0.32614266      6.44529771     -2.41414056     -0.47287984      0.60777930     -0.29930868     -0.09183242       8       0       0       0      14      0.60777928     -0.29930867     -0.09183241   -438.43012828      0.00381012      0.00944956     -0.00857660     -0.00114853
C               1.85829380      0.32653053      0.25008286     -5.69597901      0.88593916      0.41407752      0.57584133      0.68705914      0.43457040       6       0       0       0      15      0.57584140      0.68705888      0.43457017   -153.99792902      0.00306717      0.00582900     -0.00082158     -0.00063726
C               0.80837003     -0.32653266     -0.25007829     -6.07650281     -1.32504139      0.17494715     -0.90079645     -1.10620546     -0.51939980       6       0       0       0      14     -0.90079627     -1.10620558     -0.51939988   -153.07284990      0.00666219     -0.01240857      0.00762508      0.00899194
H               1.73876223      1.17877639      0.91904262     -0.67682574     -0.05175688     -0.30347750     -0.24543084      0.30760741      0.29124826       1       0       0       0      19     -0.24543082      0.30760755      0.29124838    -16.62958607      0.00316126     -0.00051773     -0.00123813     -0.00239676
H               2.88157783      0.03641793      0.01166621     -0.20088037     -0.43346916     -0.14053191      0.55674304      0.06718708     -0.00289936       1       0       0       0      15      0.55674287      0.06718716     -0.00289928    -16.58860884      0.00304409     -0.00057028      0.00009126     -0.00015559
H              -0.21491357     -0.03641919     -0.01166099     -0.11295227      0.37406457      0.09108301      0.27576887      0.09625598     -0.16517844       1       0       0       0      14      0.27576879      0.09625601     -0.16517842    -16.04784753      0.01509267     -0.00624351      0.00130748     -0.00380807
H               0.92790105     -1.17877889     -0.91903774     -0.29107960      0.55026370     -0.23609827     -0.14395874     -0.02688471     -0.14323184       1       0       0       0      19     -0.14395877     -0.02688457     -0.14323174    -16.99462942      0.00546950      0.00130894      0.00001814      0.00000035
9
EPS_SCF=0.00000100 energy=-1401.8591700827590 units=gap_units Integrated_spin_density=0.00006551 opt_dir=/home/tks32/dft_pbe/apr_8_opt_fragments_subset/singlepoint_1_CO2 time=1.00000000 free_energy=-1401.80709005 cutoff=8.00000000 nneightol=1.20000000 pbc="T T T" Lattice="13.00000000       0.00000000       0.00000000       0.00000000       9.00000000       0.00000000       0.00000000       0.00000000       9.00000000" Properties=species:S:1:pos:R:3:momenta:R:3:forces:R:3:Z:I:1:map_shift:I:3:n_neighb:I:1:force:R:3:local_energy:R:1:gap_var:R:1:gap_variance_gradient:R:3
C              -2.61053568      0.00003774     -0.00221489      4.33379230      0.85202192     -0.22813873     -0.81150355     -1.42441597     -0.30617401       6       0       0       0      11     -0.73640208     -1.10168759     -0.20363107   -152.50886093      0.00492288      0.00697059      0.00039098     -0.00032628
O              -2.74096862     -1.12431439     -0.31215394      5.68534428      1.50966954      0.73141744      0.19302939     -0.43047360     -0.13568442       8       0       0       0      13      0.18423138     -0.45885777     -0.13528389   -437.71471953      0.00368227     -0.00206666      0.00574167      0.00091614
O              -2.48295678      1.10832832      0.31409532      5.35278514     -2.29325472     -0.34703573      1.03688060      1.78035087      0.48871193       8       0       0       0      14      1.00364978      1.48063060      0.39175943   -438.35956176      0.00438250      0.01529600     -0.01321890     -0.00224310
C               1.82864297      0.32705248      0.25702487     -6.49319712      0.97275051      0.38506449      1.63794139     -0.77819499     -0.70970603       6       0       0       0      13      1.02061661      0.09800436     -0.04179206   -154.05819397      0.00309429      0.00327488     -0.00045650     -0.00057943
C               0.77184689     -0.34224572     -0.23705769     -7.19264930     -1.48450644      0.09409432     -0.56899382     -0.25673259     -0.01772384       6       0       0       0      14     -0.86460885     -0.74157875     -0.43239977   -153.07918150      0.00662210     -0.01540156      0.00855944      0.00895995
H               1.68504322      1.18672562      0.90491395     -0.79598878      0.03390291     -0.28193947     -0.06592477      0.98773189      0.86949274       1       0       0       0      19      0.01539421      0.36308716      0.38768798    -16.65068868      0.00341070     -0.00263082     -0.00099995     -0.00238387
H               2.86242736     -0.00146389      0.01072865     -0.31185103     -0.41557069     -0.08813917     -0.65869152      0.71712952      0.49794926       1       0       0       0      15     -0.08821255      0.51028451      0.33764309    -16.60071443      0.00302768     -0.00005214     -0.00062272     -0.00070703
H              -0.22424233     -0.00214461      0.00878729     -0.24178677      0.34712648      0.04521078     -0.55752186      0.19174938     -0.04621524       1       0       0       0      14     -0.25363846      0.10794477     -0.12361946    -15.87119175      0.01547955     -0.00864388      0.00013418     -0.00351032
H               0.91074297     -1.15197555     -0.94412356     -0.33644872      0.47786049     -0.31053392     -0.20521585     -0.78714452     -0.64065039       1       0       0       0      19     -0.28103004     -0.25782728     -0.18036425    -17.01605753      0.00569496      0.00325359      0.00047181     -0.00012605
9
EPS_SCF=0.00000100 energy=-1401.8328897519195 units=gap_units Integrated_spin_density=0.00006551 opt_dir=/home/tks32/dft_pbe/apr_8_opt_fragments_subset/singlepoint_1_CO2 time=2.00000000 free_energy=-1401.67462158 cutoff=8.00000000 nneightol=1.20000000 pbc="T T T" Lattice="13.00000000       0.00000000       0.00000000       0.00000000       9.00000000       0.00000000       0.00000000       0.00000000       9.00000000" Properties=species:S:1:pos:R:3:momenta:R:3:forces:R:3:Z:I:1:map_shift:I:3:n_neighb:I:1:force:R:3:local_energy:R:1:gap_var:R:1:gap_variance_gradient:R:3
C              -2.55441755     -0.00056547     -0.00351916      4.18961870      0.58808281     -0.21318432     -0.79890505     -2.84338816     -0.68243680       6       0       0       0      11     -0.67094343     -2.00379866     -0.39863218   -152.66715547      0.00522047      0.00549056      0.00313008      0.00065168
O              -2.68331038     -1.12422472     -0.29796486      5.83658565      1.45276544      0.57954698      0.20674923     -1.14170949     -0.40303280       8       0       0       0      13      0.19808753     -1.20485911     -0.38946203   -437.70066382      0.00360623      0.00189145      0.00889734      0.00174064
O              -2.42957715      1.09482796      0.30413259      5.41636925     -1.94633903     -0.19699841      1.26652863      3.89976846      1.10538090       8       0       0       0      14      1.17413574      3.11397541      0.81944853   -438.22725043      0.00510917      0.01718063     -0.01700614     -0.00323699
C               1.79990350      0.32699669      0.26324214     -6.24674736      0.78628328      0.40527052      2.06040657     -1.91621692     -1.48368732       6       0       0       0      13      1.24072499     -0.47144921     -0.43861397   -154.11588266      0.00326679     -0.00239400     -0.00000900     -0.00077516
C               0.73576438     -0.35946105     -0.22560886     -7.31324149     -1.43031665     -0.05102324      0.01704591      0.38986945      0.41079465       6       0       0       0      14     -0.62680626     -0.40512247     -0.37500303   -153.12961521      0.00671496     -0.01627307      0.00933519      0.00857478
H               1.63190897      1.19618009      0.89155530     -0.85381452      0.13773793     -0.15637603      0.06415122      1.25600432      1.09991196       1       0       0       0      19      0.19843750      0.33116092      0.40929679    -16.67976526      0.00372272     -0.00238040     -0.00043379     -0.00186835
H               2.84057041     -0.03595579      0.01340840     -0.38501136     -0.32317112     -0.01488909     -1.43157696      1.24656717      0.84923773       1       0       0       0      15     -0.54734296      0.88598854      0.59774932    -16.59325863      0.00303222      0.00029934     -0.00128775     -0.00122008
H              -0.23558669      0.03060597      0.02534995     -0.28824680      0.35728396      0.04430368     -1.18585879      0.31792362      0.06089582       1       0       0       0      14     -0.62520183      0.14101188     -0.07203420    -15.69800594      0.01587908     -0.00953795     -0.00225934     -0.00291907
H               0.89474451     -1.12840368     -0.97059551     -0.35551208      0.37767338     -0.39665010     -0.19854076     -1.20881845     -0.95706415       1       0       0       0      19     -0.34109128     -0.38690730     -0.15274924    -17.02129233      0.00590255      0.00572344     -0.00036659     -0.00094747
9
EPS_SCF=0.00000100 energy=-1401.7855170069749 units=gap_units Integrated_spin_density=0.00006551 opt_dir=/home/tks32/dft_pbe/apr_8_opt_fragments_subset/singlepoint_1_CO2 time=3.00000000 free_energy=-1401.55056824 cutoff=8.00000000 nneightol=1.20000000 pbc="T T T" Lattice="13.00000000       0.00000000       0.00000000       0.00000000       9.00000000       0.00000000       0.00000000       0.00000000       9.00000000" Properties=species:S:1:pos:R:3:momenta:R:3:forces:R:3:Z:I:1:map_shift:I:3:n_neighb:I:1:force:R:3:local_energy:R:1:gap_var:R:1:gap_variance_gradient:R:3
C              -2.49839956     -0.00222776     -0.00348968      4.07138753      0.41386169     -0.24725092     -0.72950985     -3.96429592     -1.00782828       6       0       0       0      11     -0.51081731     -2.51365969     -0.49965066   -152.85793495      0.00556838      0.00615100      0.00665644      0.00215588
O              -2.62587465     -1.12412342     -0.28291742      5.81442161      1.19913423      0.56414338     -0.20010234     -2.03571284     -0.69468309       8       0       0       0      13     -0.16943306     -2.05019629     -0.63438582   -437.67309778      0.00358102      0.00652780      0.01217323      0.00227599
O              -2.37348900      1.08442947      0.29710863      5.46339130     -1.55894459     -0.17210227      1.21590921      5.90540747      1.70951904       8       0       0       0      14      1.04919925      4.46868542      1.15713834   -438.07756192      0.00580173      0.01328723     -0.01919978     -0.00410243
C               1.77276870      0.32561549      0.26817486     -5.92234737      0.68982411      0.20405339      1.60892804     -2.52755940     -1.84248447       6       0       0       0      13      0.96410940     -0.93396838     -0.71691420   -154.16631291      0.00363207     -0.00679921      0.00029583     -0.00116295
C               0.70084159     -0.37843741     -0.21654877     -7.30574219     -1.44656198      0.13345850      1.30949159      0.71403671      0.47981591       6       0       0       0      14      0.22894310     -0.05334655     -0.36488748   -153.18205657      0.00693211     -0.01506283      0.00941278      0.00761811
H               1.58088249      1.20768031      0.87953810     -0.84230628      0.21153957     -0.06415624      0.30427320      1.00629956      0.94965096       1       0       0       0      19      0.37518002      0.17471407      0.33802245    -16.70977617      0.00404768     -0.00236490     -0.00022600     -0.00142983
H               2.81407076     -0.06522923      0.02258565     -0.51883287     -0.21330493      0.04821430     -1.73761583      1.57895576      1.04365547       1       0       0       0      15     -0.74238037      1.13768805      0.74538373    -16.57192335      0.00304678      0.00043126     -0.00177956     -0.00163955
H              -0.25015533      0.06222026      0.03515416     -0.40903545      0.41494358      0.02540587     -1.49353444      0.40290776      0.14159045       1       0       0       0      14     -0.76879220      0.13856806     -0.02758352    -15.53354349      0.01610250     -0.01008947     -0.00527619     -0.00147526
H               0.87935499     -1.10992773     -0.99960552     -0.35093626      0.28950832     -0.49176601     -0.27783958     -1.08003911     -0.77923599       1       0       0       0      19     -0.42600881     -0.36848468      0.00287714    -17.01330985      0.00607541      0.00791912     -0.00205673     -0.00223995
9
EPS_SCF=0.00000100 energy=-1401.7073168292679 units=gap_units Integrated_spin_density=0.00006551 opt_dir=/home/tks32/dft_pbe/apr_8_opt_fragments_subset/singlepoint_1_CO2 time=4.00000000 free_energy=-1401.44746234 cutoff=8.00000000 nneightol=1.20000000 pbc="T T T" Lattice="13.00000000       0.00000000       0.00000000       0.00000000       9.00000000       0.00000000       0.00000000       0.00000000       9.00000000" Properties=species:S:1:pos:R:3:momenta:R:3:forces:R:3:Z:I:1:map_shift:I:3:n_neighb:I:1:force:R:3:local_energy:R:1:gap_var:R:1:gap_variance_gradient:R:3
C              -2.44278817     -0.00490565     -0.00218888      3.83401644      0.10215286     -0.30272091     -0.75647870     -4.47581160     -1.19155721       6       0       0       0      11     -0.45461956     -2.52000236     -0.49474486   -153.06770277      0.00595991      0.00706450      0.00947900      0.00323743
O              -2.56873938     -1.12447941     -0.26803615      5.85595134      1.02640977      0.45889368     -0.47036453     -2.92120069     -0.97914372       8       0       0       0      13     -0.39744002     -2.79795979     -0.84222463   -437.63775398      0.00361845      0.00944817      0.01459229      0.00235198
O              -2.31499098      1.07758383      0.29350769      5.57674072     -0.91675655      0.05513117      0.95230845      7.34604293      2.15065098       8       0       0       0      14      0.69101893      5.28340839      1.33131958   -437.95265699      0.00636632      0.00893560     -0.01929941     -0.00408416
C               1.74726919      0.32265841      0.27123616     -5.80104505      0.35788733     -0.01122505      0.43910267     -2.65851440     -1.84838987       6       0       0       0      13      0.25784913     -1.28326654     -0.88828356   -154.20592590      0.00406267     -0.00736180      0.00055606     -0.00159530
C               0.66758036     -0.39867733     -0.20993327     -7.08094126     -1.40037582      0.12574407      2.29954060      1.04792506      0.33780985       6       0       0       0      14      1.05314484      0.35759210     -0.37156850   -153.19181765      0.00718600     -0.01079592      0.00830728      0.00616463
H               1.53394383      1.22071755      0.86870714     -0.79038513      0.29900812      0.01256534      0.74239993      0.38161103      0.53951527       1       0       0       0      19      0.66396713     -0.05114312      0.22094707    -16.73130804      0.00445036     -0.00450265      0.00015361     -0.00126169
H               2.78254262     -0.08745480      0.03892987     -0.68298578     -0.06848502      0.13455189     -1.59750662      1.69495291      1.08629721       1       0       0       0      15     -0.66469012      1.23757937      0.77766959    -16.54514394      0.00306076      0.00033958     -0.00199742     -0.00189618
H              -0.26796396      0.09208339      0.03826216     -0.54448456      0.42301594      0.03037325     -1.16525455      0.24058734      0.11549849       1       0       0       0      14     -0.61437948      0.01951568     -0.01292792    -15.37977455      0.01612472     -0.01268558     -0.00765419      0.00087736
H               0.86314649     -1.09752599     -1.03048471     -0.36686672      0.17714336     -0.50331344     -0.44374724     -0.65559258     -0.21068101       1       0       0       0      19     -0.53485085     -0.24572373      0.27981324    -16.99523301      0.00621278      0.00955809     -0.00413721     -0.00379408
9
EPS_SCF=0.00000100 energy=-1401.5982500304428 units=gap_units Integrated_spin_density=0.00006551 opt_dir=/home/tks32/dft_pbe/apr_8_opt_fragments_subset/singlepoint_1_CO2 time=5.00000000 free_energy=-1401.34185730 cutoff=8.00000000 nneightol=1.20000000 pbc="T T T" Lattice="13.00000000       0.00000000       0.00000000       0.00000000       9.00000000       0.00000000       0.00000000       0.00000000       9.00000000" Properties=species:S:1:pos:R:3:momenta:R:3:forces:R:3:Z:I:1:map_shift:I:3:n_neighb:I:1:force:R:3:local_energy:R:1:gap_var:R:1:gap_variance_gradient:R:3
C              -2.38819036     -0.00859291     -0.00042234      3.65034013     -0.26394012     -0.45399097     -0.85835256     -3.84630863     -1.04632120       6       0       0       0      11     -0.55154222     -1.90679991     -0.35087493   -153.27108354      0.00633254      0.00884095      0.01059449      0.00340747
O              -2.51259469     -1.12527496     -0.25561120      5.67886877      0.51872535      0.32313584     -0.58112975     -3.74934489     -1.23641473       8       0       0       0      13     -0.51369524     -3.39791394     -0.99358432   -437.59933431      0.00369775      0.01034318      0.01567338      0.00191929
O              -2.25498463      1.07448049      0.29361533      5.56681262      0.00639366      0.23174546      0.41707803      7.67174886      2.25093872       8       0       0       0      14      0.14150140      5.39892895      1.32215394   -437.86659823      0.00675094      0.00302521     -0.01803938     -0.00390086
C               1.72268530      0.31850999      0.27189930     -5.65370070      0.16709423     -0.13705955     -0.93536068     -2.28856532     -1.53465339       6       0       0       0      13     -0.54569617     -1.54217762     -0.97655331   -154.22617704      0.00441774     -0.00597804      0.00060810     -0.00211598
C               0.63604078     -0.41916361     -0.20526653     -6.65067701     -1.34894459      0.20491727      2.67646047      1.52320041      0.11226271       6       0       0       0      14      1.69963680      0.88475198     -0.36280247   -153.17325050      0.00731311     -0.00491157      0.00617808      0.00464398
H               1.49314168      1.23385315      0.85823508     -0.71443047      0.30197197      0.07206222      1.18893813     -0.40118918      0.02163459       1       0       0       0      19      0.93247911     -0.28251778      0.09221919    -16.73946766      0.00483251     -0.00269217      0.00126087     -0.00045224
H               2.74739917     -0.10084960      0.06099218     -0.81175678      0.09106857      0.19400007     -0.94097474      1.52892808      0.97588576       1       0       0       0      15     -0.34836647      1.18093066      0.71611787    -16.51821348      0.00307046      0.00009726     -0.00188712     -0.00194377
H              -0.28772105      0.11813650      0.03732495     -0.62076290      0.40360439      0.04915803     -0.34630828     -0.25048393     -0.04128985       1       0       0       0      14     -0.23846840     -0.24044639     -0.03934870    -15.23507872      0.01613247     -0.01912028     -0.00815716      0.00374232
H               0.84422380     -1.09109905     -1.06076679     -0.44469366      0.12402654     -0.48396837     -0.62035063     -0.18798540      0.49795738       1       0       0       0      19     -0.57584881     -0.09475594      0.59267273    -16.96904655      0.00632677      0.01039546     -0.00623125     -0.00530021
9
EPS_SCF=0.00000100 energy=-1401.4465112605048 units=gap_units Integrated_spin_density=0.00006551 opt_dir=/home/tks32/dft_pbe/apr_8_opt_fragments_subset/singlepoint_1_CO2 time=6.00000000 free_energy=-1401.15646345 cutoff=8.00000000 nneightol=1.20000000 pbc="T T T" Lattice="13.00000000       0.00000000       0.00000000       0.00000000       9.00000000       0.00000000       0.00000000       0.00000000       9.00000000" Properties=species:S:1:pos:R:3:momenta:R:3:forces:R:3:Z:I:1:map_shift:I:3:n_neighb:I:1:force:R:3:local_energy:R:1:gap_var:R:1:gap_variance_gradient:R:3
C              -2.33559191     -0.01385370      0.00076589      3.44040887     -0.73444560     -0.48257399     -1.08994558     -2.02998433     -0.53927024       6       0       0       0      11     -0.83746700     -0.63063289     -0.04972263   -153.44167912      0.00670823      0.01255568      0.01014767      0.00279731
O              -2.45778223     -1.12686226     -0.24659785      5.56433060      0.23507098      0.19688949     -0.58295557     -4.52071845     -1.45151581       8       0       0       0      13     -0.50933812     -3.89271147     -1.10606758   -437.55686647      0.00378734      0.01000583      0.01584185      0.00131577
O              -2.19534866      1.07498133      0.29650299      5.50466521      0.75119573      0.39936073     -0.36758255      6.83543406      1.98809730       8       0       0       0      15     -0.54375104      4.80504319      1.14174461   -437.81328214      0.00698984      0.00241265     -0.01747841     -0.00408769
C               1.69785711      0.31365314      0.27014029     -5.66227291      0.11548816     -0.25044162     -2.29327118     -1.69526041     -1.09123715       6       0       0       0      13     -1.08783284     -1.67202602     -0.96949617   -154.21953535      0.00465045     -0.00627601      0.00035379     -0.00283982
C               0.60608212     -0.43817645     -0.20175191     -6.33658310     -1.21289169      0.17536752      2.55437441      2.16332940     -0.02746076       6       0       0       0      15      2.07668782      1.40883990     -0.37421818   -153.14613585      0.00723622      0.00029184      0.00391578      0.00346586
H               1.46045337      1.24493252      0.84732476     -0.58998536      0.19816171      0.05981090      1.45894146     -0.98926402     -0.37595699       1       0       0       0      19      1.08596990     -0.45419638     -0.00922911    -16.73912250      0.00506563      0.00007244      0.00260576      0.00039682
H               2.71141184     -0.10545807      0.08696557     -0.82991461      0.16353986      0.27484889      0.24074476      1.05676726      0.71432274       1       0       0       0      15      0.12024734      0.99672542      0.59960066    -16.49502555      0.00307780     -0.00016112     -0.00147074     -0.00181906
H              -0.30705518      0.13938472      0.03476313     -0.60736388      0.38767575      0.02541723      0.79495426     -0.97728598     -0.29820946       1       0       0       0      15      0.26278193     -0.58394114     -0.09865663    -15.09754826      0.01636907     -0.02848948     -0.00677062      0.00677691
H               0.81997353     -1.08860124     -1.08811286     -0.48328484      0.09620511     -0.39867914     -0.71526001      0.15698246      1.08123039       1       0       0       0      20     -0.56729800      0.02289939      0.86604502    -16.93731602      0.00645351      0.00958816     -0.00714508     -0.00600609
9
EPS_SCF=0.00000100 energy=-1401.2535640250169 units=gap_units Integrated_spin_density=0.00006551 opt_dir=/home/tks32/dft_pbe/apr_8_opt_fragments_subset/singlepoint_1_CO2 time=7.00000000 free_energy=-1400.86733605 cutoff=8.00000000 nneightol=1.20000000 pbc="T T T" Lattice="13.00000000       0.00000000       0.00000000       0.00000000       9.00000000       0.00000000       0.00000000       0.00000000       9.00000000" Properties=species:S:1:pos:R:3:momenta:R:3:forces:R:3:Z:I:1:map_shift:I:3:n_neighb:I:1:force:R:3:local_energy:R:1:gap_var:R:1:gap_variance_gradient:R:3
C              -2.28561870     -0.01889398      0.00154572      3.31876121     -0.75616810     -0.48184389     -1.42852142      0.54707180      0.21831118       6       0       0       0      11     -1.29331360      0.52277475      0.23345100   -153.55376442      0.00715962      0.01801879      0.00920185      0.00167476
O              -2.40466067     -1.13073653     -0.24136611      5.44871454     -0.34101692      0.07570663     -0.65642250     -5.29004395     -1.67432059       8       0       0       0      13     -0.51303453     -4.06493798     -1.17441855   -437.53744581      0.00389949      0.01052436      0.01575254      0.00094207
O              -2.13831413      1.07806024      0.30081386      5.23543133      1.43623026      0.52406595     -0.99505371      5.11116173      1.44994267       8       0       0       0      15     -1.01285708      3.90491616      0.90683629   -437.77007995      0.00732240      0.00636508     -0.01750379     -0.00430472
C               1.67147086      0.30870445      0.26635499     -5.92735477      0.02980733     -0.46025183     -3.29929900     -1.00100449     -0.64975654       6       0       0       0      13     -1.16314165     -1.54417289     -0.84637669   -154.17797624      0.00488433     -0.01037610     -0.00065292     -0.00390979
C               0.57730461     -0.45429202     -0.19899491     -5.88132034     -1.06564047      0.23448295      2.21999424      2.72147129     -0.15211192       6       0       0       0      15      2.12081071      1.77699642     -0.43775047   -153.13140651      0.00699318      0.00308006      0.00228733      0.00272535
H               1.43678340      1.25210867      0.83532282     -0.40545984      0.05834586     -0.02811580      1.51379619     -1.21482962     -0.53646546       1       0       0       0      19      1.11113215     -0.51146863     -0.04889317    -16.73774876      0.00517712      0.00204587      0.00374354      0.00093267
H               2.67796107     -0.10224440      0.11556521     -0.71680339      0.22959880      0.36886235      1.61980708      0.41929860      0.40156713       1       0       0       0      15      0.59258283      0.74843143      0.47141985    -16.48244754      0.00308423     -0.00028362     -0.00081858     -0.00159886
H              -0.32333391      0.15465912      0.03138067     -0.49856818      0.27096309      0.05107255      1.81601061     -1.62472498     -0.53697017       1       0       0       0      15      0.74604632     -0.88901025     -0.15855438    -14.95817582      0.01690265     -0.03777113     -0.00465348      0.00972077
H               0.78840747     -1.08736555     -1.11062223     -0.57340058      0.13788016     -0.28397891     -0.79031149      0.33159963      1.47980370       1       0       0       0      20     -0.58822514      0.05647098      1.05428612    -16.90451897      0.00662039      0.00839668     -0.00735649     -0.00618225
9
EPS_SCF=0.00000100 energy=-1401.0805780746273 units=gap_units Integrated_spin_density=0.00006551 opt_dir=/home/tks32/dft_pbe/apr_8_opt_fragments_subset/singlepoint_1_CO2 time=8.00000000 free_energy=-1400.63932447 cutoff=8.00000000 nneightol=1.20000000 pbc="T T T" Lattice="13.00000000       0.00000000       0.00000000       0.00000000       9.00000000       0.00000000       0.00000000       0.00000000       9.00000000" Properties=species:S:1:pos:R:3:momenta:R:3:forces:R:3:Z:I:1:map_shift:I:3:n_neighb:I:1:force:R:3:local_energy:R:1:gap_var:R:1:gap_variance_gradient:R:3
C              -2.23896919     -0.02365518      0.00180867      3.22826183     -0.59332327     -0.40465234     -1.43961527      2.52564709      0.84108578       6       0       0       0      12     -1.36965399      1.40770030      0.48143647   -153.61414436      0.00778324      0.02521768      0.00863970      0.00065369
O              -2.35371868     -1.13733148     -0.23917160      5.08278534     -0.98661558     -0.23300479     -0.58609086     -5.46601848     -1.77024296       8       0       0       0      13     -0.41792493     -3.82428952     -1.17469258   -437.56008763      0.00406509      0.01103942      0.01531707      0.00083987
O              -2.08497458      1.08357646      0.30552852      5.05965592      1.90414592      0.59438627     -1.23343241      3.31170274      0.90250707       8       0       0       0      15     -1.20214085      2.79494572      0.63874949   -437.74685497      0.00770361      0.00968995     -0.01673653     -0.00421285
C               1.64254049      0.30413916      0.26112463     -6.07019905     -0.02107170     -0.38694009     -3.86014928     -0.54134813     -0.41059936       6       0       0       0      13     -1.14622557     -1.33753617     -0.70814245   -154.10415843      0.00519381     -0.01494224     -0.00215650     -0.00509033