9
EPS_SCF=0.00000100 energy=-1401.8498565490638 units=gap_units Integrated_spin_density=0.00006551 opt_dir=/home/tks32/dft_pbe/apr_8_opt_fragments_subset/singlepoint_1_CO2 time=0.00000000 free_energy=-1401.84985654 cutoff=8.00000000 nneightol=1.20000000 pbc="T T T" Lattice="13.00000000       0.00000000       0.00000000       0.00000000       9.00000000       0.00000000       0.00000000       0.00000000       9.00000000" Properties=species:S:1:pos:R:3:momenta:R:3:forces:R:3:Z:I:1:map_shift:I:3:n_neighb:I:1:force:R:3:local_energy:R:1:gap_var:R:1:gap_variance_gradient:R:3
C              -2.66661630      0.00003508     -0.00008450      5.45409721      0.81308744     -0.21939016     -0.71616738      0.08149990      0.07809224       6       0       0       0      12     -0.71616740      0.08149946      0.07809209   -152.36801565      0.00469919      0.00753098     -0.00155187     -0.00082503
O              -2.79916745     -1.12388035     -0.32607284      6.91856637      1.60105312      0.69227000     -0.00977911      0.19278933      0.11863095       8       0       0       0      14     -0.00977908      0.19278975      0.11863108   -437.72026183      0.00376144     -0.00437837      0.00314623     -0.00002105
O              -2.53420761      1.12385113      0.32614266      6.44529771     -2.41414056     -0.47287984      0.60777930     -0.29930868     -0.09183242       8       0       0       0      14      0.60777928     -0.29930867     -0.09183241   -438.43012828      0.00381012      0.00944956     -0.00857660     -0.00114853
C               1.85829380      0.32653053      0.25008286     -5.69597901      0.88593916      0.41407752      0.57584133      0.68705914      0.43457040       6       0       0       0      15      0.57584140      0.68705888      0.43457017   -153.99792902      0.00306717      0.00582900     -0.00082158     -0.00063726
C               0.80837003     -0.32653266     -0.25007829     -6.07650281     -1.32504139      0.17494715     -0.90079645     -1.10620546     -0.51939980       6       0       0       0      14     -0.90079627     -1.10620558     -0.51939988   -153.07284990      0.00666219     -0.01240857      0.00762508      0.00899194
H               1.73876223      1.17877639      0.91904262     -0.67682574     -0.05175688     -0.30347750     -0.24543084      0.30760741      0.29124826       1       0       0       0      19     -0.24543082      0.30760755      0.29124838    -16.62958607      0.00316126     -0.00051773     -0.00123813     -0.00239676
H               2.88157783      0.03641793      0.01166621     -0.20088037     -0.43346916     -0.14053191      0.55674304      0.06718708     -0.00289936       1       0       0       0      15      0.55674287      0.06718716     -0.00289928    -16.58860884      0.00304409     -0.00057028      0.00009126     -0.00015559
H              -0.21491357     -0.03641919     -0.01166099     -0.11295227      0.37406457      0.09108301      0.27576887      0.09625598     -0.16517844       1       0       0       0      14      0.27576879      0.09625601     -0.16517842    -16.04784753      0.01509267     -0.00624351      0.00130748     -0.00380807
H               0.92790105     -1.17877889     -0.91903774     -0.29107960      0.55026370     -0.23609827     -0.14395874     -0.02688471     -0.14323184       1       0       0       0      19     -0.14395877     -0.02688457     -0.14323174    -16.99462942      0.00546950      0.00130894      0.00001814      0.00000035
9
EPS_SCF=0.00000100 energy=-1401.8683028500511 units=gap_units Integrated_spin_density=0.00006551 opt_dir=/home/tks32/dft_pbe/apr_8_opt_fragments_subset/singlepoint_1_CO2 time=1.00000000 free_energy=-1401.80709005 cutoff=8.00000000 nneightol=1.20000000 pbc="T T T" Lattice="13.00000000       0.00000000       0.00000000       0.00000000       9.00000000       0.00000000       0.00000000       0.00000000       9.00000000" Properties=species:S:1:pos:R:3:momenta:R:3:forces:R:3:Z:I:1:map_shift:I:3:n_neighb:I:1:force:R:3:local_energy:R:1:gap_var:R:1:gap_variance_gradient:R:3
C              -2.61312174      0.00065774     -0.00529347      4.33379230      0.85202192     -0.22813873     -0.81150355     -1.42441597     -0.30617401       6       0       0       0      11     -0.66435250     -0.42219376     -0.02366261   -152.45686826      0.00487955      0.00663281     -0.00070239     -0.00000750
O              -2.74683917     -1.11695266     -0.34411037      5.68534428      1.50966954      0.73141744      0.19302939     -0.43047360     -0.13568442       8       0       0       0      13      0.22381329     -0.17129884     -0.06502260   -437.72943683      0.00368579     -0.00248331      0.00460639      0.00083936
O              -2.48235068      1.10961289      0.34084897      5.35278514     -2.29325472     -0.34703573      1.03688060      1.78035087      0.48871193       8       0       0       0      14      0.87028931      0.52207571      0.13888070   -438.40588847      0.00428204      0.01496398     -0.01159436     -0.00183153
C               1.83089425      0.32849813      0.24487485     -6.49319712      0.97275051      0.38506449      1.63794139     -0.77819499     -0.70970603       6       0       0       0      13      0.68818671      0.64296002      0.40739690   -154.02731174      0.00309291      0.00358412     -0.00115266     -0.00050589
C               0.77939604     -0.33588587     -0.24189187     -7.19264930     -1.48450644      0.09409432     -0.56899382     -0.25673259     -0.01772384       6       0       0       0      14     -1.14020085     -1.20108393     -0.64594199   -153.04122837      0.00656733     -0.01400908      0.00816880      0.01008794
H               1.70458897      1.19453491      0.89745742     -0.79598878      0.03390291     -0.28193947     -0.06592477      0.98773189      0.86949274       1       0       0       0      19     -0.14514694      0.22851795      0.23335905    -16.66349590      0.00336694     -0.00228536     -0.00142456     -0.00256041
H               2.85622718      0.02274177      0.01836915     -0.31185103     -0.41557069     -0.08813917     -0.65869152      0.71712952      0.49794926       1       0       0       0      15      0.47825572      0.18586586      0.06813545    -16.59657304      0.00303909     -0.00102861     -0.00013453     -0.00024995
H              -0.22819713     -0.02120448      0.01452162     -0.24178677      0.34712648      0.04521078     -0.55752186      0.19174938     -0.04621524       1       0       0       0      14     -0.05937647      0.15296422     -0.13202269    -15.89661007      0.01548511     -0.00883434      0.00248883     -0.00519816
H               0.89940230     -1.18200243     -0.92477629     -0.33644872      0.47786049     -0.31053392     -0.20521585     -0.78714452     -0.64065039       1       0       0       0      19     -0.25146827      0.06219276      0.01887779    -17.05089018      0.00565941      0.00345978     -0.00025552     -0.00057386
9
EPS_SCF=0.00000100 energy=-1401.9030347231023 units=gap_units Integrated_spin_density=0.00006551 opt_dir=/home/tks32/dft_pbe/apr_8_opt_fragments_subset/singlepoint_1_CO2 time=2.00000000 free_energy=-1401.67462158 cutoff=8.00000000 nneightol=1.20000000 pbc="T T T" Lattice="13.00000000       0.00000000       0.00000000       0.00000000       9.00000000       0.00000000       0.00000000       0.00000000       9.00000000" Properties=species:S:1:pos:R:3:momenta:R:3:forces:R:3:Z:I:1:map_shift:I:3:n_neighb:I:1:force:R:3:local_energy:R:1:gap_var:R:1:gap_variance_gradient:R:3
C              -2.55989085     -0.00037082     -0.00995692      4.18961870      0.58808281     -0.21318432     -0.79890505     -2.84338816     -0.68243680       6       0       0       0      11     -0.61012086     -0.89121030     -0.12282893   -152.56716340      0.00508992      0.00498367      0.00095232      0.00106901
O              -2.69188982     -1.11657735     -0.34927033      5.83658565      1.45276544      0.57954698      0.20674923     -1.14170949     -0.40303280       8       0       0       0      13      0.33214253     -0.48543625     -0.22886574   -437.74594658      0.00358761      0.00147051      0.00629760      0.00143933
O              -2.43269553      1.09853348      0.34411517      5.41636925     -1.94633903     -0.19699841      1.26652863      3.89976846      1.10538090       8       0       0       0      14      0.93073776      1.28405906      0.37065524   -438.33958613      0.00488458      0.01761362     -0.01368488     -0.00233830
C               1.80366916      0.32750148      0.24200041     -6.24674736      0.78628328      0.40527052      2.06040657     -1.91621692     -1.48368732       6       0       0       0      13      0.92135645      0.59228049      0.38877010   -154.05413017      0.00323403     -0.00178197     -0.00149099     -0.00066455
C               0.75024690     -0.34500497     -0.23249540     -7.31324149     -1.43031665     -0.05102324      0.01704591      0.38986945      0.41079465       6       0       0       0      14     -1.28904962     -1.29276412     -0.84583215   -153.04010263      0.00657455     -0.01417436      0.00902271      0.01085364
H               1.67240924      1.20574770      0.88179402     -0.85381452      0.13773793     -0.15637603      0.06415122      1.25600432      1.09991196       1       0       0       0      19     -0.04644432      0.12132983      0.17104523    -16.70554518      0.00359976     -0.00228956     -0.00131499     -0.00236730
H               2.83089940      0.00652886      0.02618139     -0.38501136     -0.32317112     -0.01488909     -1.43157696      1.24656717      0.84923773       1       0       0       0      15      0.38305830      0.30722393      0.14249639    -16.60499659      0.00303583     -0.00153086     -0.00036406     -0.00040043
H              -0.24117507      0.00104468      0.03722674     -0.28824680      0.35728396      0.04430368     -1.18585879      0.31792362      0.06089582       1       0       0       0      14     -0.31300678      0.22003138     -0.07872371    -15.75441139      0.01593489     -0.00968576      0.00214240     -0.00589164
H               0.86842658     -1.17740307     -0.93959509     -0.35551208      0.37767338     -0.39665010     -0.19854076     -1.20881845     -0.95706415       1       0       0       0      19     -0.30867346      0.14448598      0.20328356    -17.09115265      0.00581070      0.00539471     -0.00156011     -0.00169977
9
EPS_SCF=0.00000100 energy=-1401.9478299397751 units=gap_units Integrated_spin_density=0.00006551 opt_dir=/home/tks32/dft_pbe/apr_8_opt_fragments_subset/singlepoint_1_CO2 time=3.00000000 free_energy=-1401.55056824 cutoff=8.00000000 nneightol=1.20000000 pbc="T T T" Lattice="13.00000000       0.00000000       0.00000000       0.00000000       9.00000000       0.00000000       0.00000000       0.00000000       9.00000000" Properties=species:S:1:pos:R:3:momenta:R:3:forces:R:3:Z:I:1:map_shift:I:3:n_neighb:I:1:force:R:3:local_energy:R:1:gap_var:R:1:gap_variance_gradient:R:3
C              -2.50727094     -0.00448655     -0.01231379      4.07138753      0.41386169     -0.24725092     -0.72950985     -3.96429592     -1.00782828       6       0       0       0      11     -0.39186036     -1.00510661     -0.10427665   -152.70852472      0.00530957      0.00444564      0.00302324      0.00188459
O              -2.63478658     -1.12566888     -0.32984079      5.81442161      1.19913423      0.56414338     -0.20010234     -2.03571284     -0.69468309       8       0       0       0      13      0.15424375     -0.86230835     -0.37939338   -437.75960918      0.00352786      0.00606034      0.00809141      0.00157296
O              -2.38389663      1.09483388      0.32836533      5.46339130     -1.55894459     -0.17210227      1.21590921      5.90540747      1.70951904       8       0       0       0      14      0.81285128      1.75167924      0.48368050   -438.25853789      0.00550006      0.01584321     -0.01407431     -0.00231725
C               1.77607658      0.32216041      0.24380759     -5.92234737      0.68982411      0.20405339      1.60892804     -2.52755940     -1.84248447       6       0       0       0      13      1.06877782      0.50564832      0.33939913   -154.08677936      0.00354508     -0.00682449     -0.00169061     -0.00116039
C               0.71796143     -0.35654353     -0.22377809     -7.30574219     -1.44656198      0.13345850      1.30949159      0.71403671      0.47981591       6       0       0       0      14     -0.94247595     -1.25491978     -1.06320561   -153.06952451      0.00670122     -0.01322118      0.00979469      0.01075446
H               1.64144403      1.20917204      0.87630884     -0.84230628      0.21153957     -0.06415624      0.30427320      1.00629956      0.94965096       1       0       0       0      19     -0.01833076     -0.00769335      0.11625672    -16.74119171      0.00381544     -0.00171678     -0.00103432     -0.00211150
H               2.80541624     -0.01226102      0.03848324     -0.51883287     -0.21330493      0.04821430     -1.73761583      1.57895576      1.04365547       1       0       0       0      15      0.27985177      0.41063924      0.20911600    -16.60829675      0.00303441     -0.00191303     -0.00049411     -0.00058594
H              -0.25396368      0.03085153      0.04941202     -0.40903545      0.41494358      0.02540587     -1.49353444      0.40290776      0.14159045       1       0       0       0      14     -0.55732494      0.28818635      0.00554047    -15.61184529      0.01629441     -0.00926907     -0.00043806     -0.00507320
H               0.83901955     -1.15805789     -0.97044434     -0.35093626      0.28950832     -0.49176601     -0.27783958     -1.08003911     -0.77923599       1       0       0       0      19     -0.40573260      0.17387494      0.39288282    -17.10352052      0.00595512      0.00659536     -0.00317793     -0.00296373
9
EPS_SCF=0.00000100 energy=-1401.9668416058305 units=gap_units Integrated_spin_density=0.00006551 opt_dir=/home/tks32/dft_pbe/apr_8_opt_fragments_subset/singlepoint_1_CO2 time=4.00000000 free_energy=-1401.44746234 cutoff=8.00000000 nneightol=1.20000000 pbc="T T T" Lattice="13.00000000       0.00000000       0.00000000       0.00000000       9.00000000       0.00000000       0.00000000       0.00000000       9.00000000" Properties=species:S:1:pos:R:3:momenta:R:3:forces:R:3:Z:I:1:map_shift:I:3:n_neighb:I:1:force:R:3:local_energy:R:1:gap_var:R:1:gap_variance_gradient:R:3
C              -2.45571019     -0.01029487     -0.01286902      3.83401644      0.10215286     -0.30272091     -0.75647870     -4.47581160     -1.19155721       6       0       0       0      11     -0.22857896     -0.76582060      0.00656786   -152.87221410      0.00552300      0.00530834      0.00509096      0.00244048
O              -2.57721498     -1.13825851     -0.30078194      5.85595134      1.02640977      0.45889368     -0.47036453     -2.92120069     -0.97914372       8       0       0       0      13     -0.08153837     -1.17020135     -0.47436948   -437.77096594      0.00353622      0.00943795      0.00938585      0.00122303
O              -2.33478652      1.09554192      0.30707012      5.57674072     -0.91675655      0.05513117      0.95230845      7.34604293      2.15065098       8       0       0       0      14      0.44575550      1.86745034      0.46530104   -438.18400185      0.00601387      0.01094366     -0.01275476     -0.00182663
C               1.74811762      0.31500673      0.24746824     -5.80104505      0.35788733     -0.01122505      0.43910267     -2.65851440     -1.84838987       6       0       0       0      13      1.11209668      0.34806476      0.24643077   -154.12378426      0.00394133     -0.00868794     -0.00153026     -0.00168284
C               0.68329611     -0.37115340     -0.21647200     -7.08094126     -1.40037582      0.12574407      2.29954060      1.04792506      0.33780985       6       0       0       0      14     -0.30886432     -1.14091247     -1.24990451   -153.08660241      0.00690735     -0.01087618      0.00993017      0.00981816
H               1.61119961      1.20993794      0.87382579     -0.79038513      0.29900812      0.01256534      0.74239993      0.38161103      0.53951527       1       0       0       0      19      0.06084360     -0.10048454      0.09634625    -16.76696139      0.00404037     -0.00193513     -0.00095918     -0.00200948
H               2.78003240     -0.03068683      0.05532621     -0.68298578     -0.06848502      0.13455189     -1.59750662      1.69495291      1.08629721       1       0       0       0      15      0.18480339      0.48473185      0.25445795    -16.60653532      0.00303528     -0.00205318     -0.00046748     -0.00073741
H              -0.26654612      0.06252109      0.05350932     -0.54448456      0.42301594      0.03037325     -1.16525455      0.24058734      0.11549849       1       0       0       0      14     -0.73842911      0.33639180      0.10358071    -15.46405271      0.01645265     -0.00925802     -0.00396367     -0.00320195
H               0.81161206     -1.13261407     -1.00707671     -0.36686672      0.17714336     -0.50331344     -0.44374724     -0.65559258     -0.21068101       1       0       0       0      19     -0.44608842      0.14078021      0.55158941    -17.09172363      0.00608798      0.00712050     -0.00473163     -0.00402337
9
EPS_SCF=0.00000100 energy=-1401.9383855069182 units=gap_units Integrated_spin_density=0.00006551 opt_dir=/home/tks32/dft_pbe/apr_8_opt_fragments_subset/singlepoint_1_CO2 time=5.00000000 free_energy=-1401.34185730 cutoff=8.00000000 nneightol=1.20000000 pbc="T T T" Lattice="13.00000000       0.00000000       0.00000000       0.00000000       9.00000000       0.00000000       0.00000000       0.00000000       9.00000000" Properties=species:S:1:pos:R:3:momenta:R:3:forces:R:3:Z:I:1:map_shift:I:3:n_neighb:I:1:force:R:3:local_energy:R:1:gap_var:R:1:gap_variance_gradient:R:3
C              -2.40535278     -0.01640327     -0.01191051      3.65034013     -0.26394012     -0.45399097     -0.85835256     -3.84630863     -1.04632120       6       0       0       0      11     -0.25468286     -0.40665030      0.12643307   -153.03171217      0.00574038      0.00744453      0.00665816      0.00248481
O              -2.52031086     -1.15245248     -0.26936212      5.67886877      0.51872535      0.32313584     -0.58112975     -3.74934489     -1.23641473       8       0       0       0      13     -0.20280233     -1.20174238     -0.47490997   -437.78293336      0.00359508      0.01046669      0.00956511      0.00049856
O              -2.28500584      1.09902699      0.28640553      5.56681262      0.00639366      0.23174546      0.41707803      7.67174886      2.25093872       8       0       0       0      14     -0.07132034      1.64388846      0.34554068   -438.11946549      0.00640643      0.00654728     -0.00998871     -0.00071904
C               1.71996613      0.30741793      0.25162862     -5.65370070      0.16709423     -0.13705955     -0.93536068     -2.28856532     -1.53465339       6       0       0       0      13      1.22355584      0.12025449      0.12986159   -154.15191641      0.00429715     -0.00860709     -0.00115875     -0.00225817
C               0.64854655     -0.38727056     -0.21111567     -6.65067701     -1.34894459      0.20491727      2.67646047      1.52320041      0.11226271       6       0       0       0      14      0.20773548     -0.94363387     -1.38300641   -153.08983221      0.00704404     -0.00696360      0.00912726      0.00825676
H               1.58174307      1.21021477      0.87157877     -0.71443047      0.30197197      0.07206222      1.18893813     -0.40118918      0.02163459       1       0       0       0      19      0.18064506     -0.14590220      0.10608687    -16.78255011      0.00433493     -0.00336143     -0.00073554     -0.00198149
H               2.75501398     -0.04699353      0.07668154     -0.81175678      0.09106857      0.19400007     -0.94097474      1.52892808      0.97588576       1       0       0       0      15      0.11007760      0.52500644      0.27431064    -16.60311218      0.00303868     -0.00188349     -0.00027795     -0.00080580
H              -0.27892508      0.09305420      0.05083062     -0.62076290      0.40360439      0.04915803     -0.34630828     -0.25048393     -0.04128985       1       0       0       0      14     -0.79612059      0.32679415      0.18671130    -15.31225277      0.01641898     -0.01112002     -0.00697790     -0.00055379
H               0.78432483     -1.10659405     -1.04473678     -0.44469366      0.12402654     -0.48396837     -0.62035063     -0.18798540      0.49795738       1       0       0       0      19     -0.39708786      0.08198520      0.68897224    -17.06461081      0.00620940      0.00747712     -0.00621169     -0.00492184
9
EPS_SCF=0.00000100 energy=-1401.8463666276352 units=gap_units Integrated_spin_density=0.00006551 opt_dir=/home/tks32/dft_pbe/apr_8_opt_fragments_subset/singlepoint_1_CO2 time=6.00000000 free_energy=-1401.15646345 cutoff=8.00000000 nneightol=1.20000000 pbc="T T T" Lattice="13.00000000       0.00000000       0.00000000       0.00000000       9.00000000       0.00000000       0.00000000       0.00000000       9.00000000" Properties=species:S:1:pos:R:3:momenta:R:3:forces:R:3:Z:I:1:map_shift:I:3:n_neighb:I:1:force:R:3:local_energy:R:1:gap_var:R:1:gap_variance_gradient:R:3
C              -2.35614515     -0.02155189     -0.00917307      3.44040887     -0.73444560     -0.48257399     -1.08994558     -2.02998433     -0.53927024       6       0       0       0      11     -0.55076088     -0.12040966      0.20893799   -153.16457277      0.00603163      0.01129348      0.00765870      0.00194836
O              -2.46532003     -1.16688412     -0.23765975      5.56433060      0.23507098      0.19688949     -0.58295557     -4.52071845     -1.45151581       8       0       0       0      13     -0.09181526     -0.90141045     -0.41783845   -437.79652362      0.00366661      0.00970093      0.00874456     -0.00025813
O              -2.23363261      1.10461715      0.26839947      5.50466521      0.75119573      0.39936073     -0.36758255      6.83543406      1.98809730       8       0       0       0      14     -0.72811612      1.23752594      0.19606725   -438.05569200      0.00670586      0.00342312     -0.00825034     -0.00060396
C               1.69154781      0.30027722      0.25590517     -5.66227291      0.11548816     -0.25044162     -2.29327118     -1.69526041     -1.09123715       6       0       0       0      13      1.48914815     -0.20364008     -0.01058372   -154.16419021      0.00455282     -0.00850782     -0.00102278     -0.00305425
C               0.61447770     -0.40444509     -0.20894985     -6.33658310     -1.21289169      0.17536752      2.55437441      2.16332940     -0.02746076       6       0       0       0      14      0.63666359     -0.63551724     -1.42374062   -153.09506113      0.00701734     -0.00322439      0.00770744      0.00644343
H               1.55243775      1.21057933      0.86902394     -0.58998536      0.19816171      0.05981090      1.45894146     -0.98926402     -0.37595699       1       0       0       0      19      0.28531105     -0.14260762      0.13494529    -16.78862027      0.00465807     -0.00229782     -0.00010748     -0.00142480
H               2.73038550     -0.05948208      0.10275441     -0.82991461      0.16353986      0.27484889      0.24074476      1.05676726      0.71432274       1       0       0       0      15      0.06071153      0.52656276      0.26792020    -16.59868033      0.00304478     -0.00135266      0.00004831     -0.00076193
H              -0.29126257      0.11917618      0.04131878     -0.60736388      0.38767575      0.02541723      0.79495426     -0.97728598     -0.29820946       1       0       0       0      14     -0.74845963      0.25310345      0.24314360    -15.15620804      0.01632081     -0.01531829     -0.00861844      0.00259405
H               0.75751160     -1.08228670     -1.08161911     -0.48328484      0.09620511     -0.39867914     -0.71526001      0.15698246      1.08123039       1       0       0       0      19     -0.35268242     -0.01360709      0.80114846    -17.02681825      0.00632863      0.00628344     -0.00615997     -0.00488277
9
EPS_SCF=0.00000100 energy=-1401.6742332861122 units=gap_units Integrated_spin_density=0.00006551 opt_dir=/home/tks32/dft_pbe/apr_8_opt_fragments_subset/singlepoint_1_CO2 time=7.00000000 free_energy=-1400.86733605 cutoff=8.00000000 nneightol=1.20000000 pbc="T T T" Lattice="13.00000000       0.00000000       0.00000000       0.00000000       9.00000000       0.00000000       0.00000000       0.00000000       9.00000000" Properties=species:S:1:pos:R:3:momenta:R:3:forces:R:3:Z:I:1:map_shift:I:3:n_neighb:I:1:force:R:3:local_energy:R:1:gap_var:R:1:gap_variance_gradient:R:3
C              -2.30847839     -0.02529527     -0.00580503      3.31876121     -0.75616810     -0.48184389     -1.42852142      0.54707180      0.21831118       6       0       0       0      11     -1.05324509      0.22596378      0.28595227   -153.26423405      0.00646317      0.01628203      0.00789495      0.00105006
O              -2.41389028     -1.17654705     -0.21742396      5.44871454     -0.34101692      0.07570663     -0.65642250     -5.29004395     -1.67432059       8       0       0       0      13     -0.04185970     -0.61430521     -0.41312660   -437.80018945      0.00376484      0.00965636      0.00817030     -0.00057626
O              -2.17987394      1.10977974      0.26222569      5.23543133      1.43623026      0.52406595     -0.99505371      5.11116173      1.44994267       8       0       0       0      15     -1.26909713      0.70596842      0.05956432   -437.98795149      0.00697789      0.00370711     -0.00752367     -0.00079096
C               1.66304650      0.29565940      0.25791502     -5.92735477      0.02980733     -0.46025183     -3.29929900     -1.00100449     -0.64975654       6       0       0       0      13      1.89903119     -0.50416390     -0.14887260   -154.14388246      0.00477710     -0.01261746     -0.00133692     -0.00410300
C               0.58188777     -0.42195537     -0.21019501     -5.88132034     -1.06564047      0.23448295      2.21999424      2.72147129     -0.15211192       6       0       0       0      15      1.04671903     -0.19039126     -1.28612084   -153.11212394      0.00685092     -0.00126697      0.00610011      0.00467367
H               1.52325445      1.21439294      0.86129631     -0.40545984      0.05834586     -0.02811580      1.51379619     -1.21482962     -0.53646546       1       0       0       0      19      0.33455791     -0.09679396      0.16721191    -16.78943792      0.00491952      0.00033835      0.00081081     -0.00055936
H               2.70623746     -0.06606000      0.13156754     -0.71680339      0.22959880      0.36886235      1.61980708      0.41929860      0.40156713       1       0       0       0      15      0.03464097      0.49224323      0.23751550    -16.59467175      0.00305404     -0.00050801      0.00045048     -0.00062283
H              -0.30349131      0.13635118      0.02993278     -0.49856818      0.27096309      0.05107255      1.81601061     -1.62472498     -0.53697017       1       0       0       0      15     -0.58137454      0.13320339      0.26513469    -14.99689380      0.01640384     -0.02140318     -0.00859376      0.00560788
H               0.73130774     -1.06632557     -1.10951335     -0.57340058      0.13788016     -0.28397891     -0.79031149      0.33159963      1.47980370       1       0       0       0      20     -0.36937266     -0.15172449      0.83274136    -16.98484842      0.00647177      0.00581177     -0.00597229     -0.00467921
9
EPS_SCF=0.00000100 energy=-1401.4653365365116 units=gap_units Integrated_spin_density=0.00006551 opt_dir=/home/tks32/dft_pbe/apr_8_opt_fragments_subset/singlepoint_1_CO2 time=8.00000000 free_energy=-1400.63932447 cutoff=8.00000000 nneightol=1.20000000 pbc="T T T" Lattice="13.00000000       0.00000000       0.00000000       0.00000000       9.00000000       0.00000000       0.00000000       0.00000000       9.00000000" Properties=species:S:1:pos:R:3:momenta:R:3:forces:R:3:Z:I:1:map_shift:I:3:n_neighb:I:1:force:R:3:local_energy:R:1:gap_var:R:1:gap_variance_gradient:R:3
C              -2.26258367     -0.02700582     -0.00414145      3.22826183     -0.59332327     -0.40465234     -1.43961527      2.52564709      0.84108578       6       0       0       0      12     -1.19589569      0.46081024      0.35444126   -153.35417436      0.00709827      0.02288744      0.00785336      0.00032979
O              -2.36488095     -1.17870191     -0.22133980      5.08278534     -0.98661558     -0.23300479     -0.58609086     -5.46601848     -1.77024296       8       0       0       0      13     -0.03068255     -0.43225125     -0.43984133   -437.80606991      0.00392355      0.00982008      0.00814977     -0.00048711
O              -2.12603198      1.11019284      0.27518516      5.05965592      1.90414592      0.59438627     -1.23343241      3.31170274      0.90250707       8       0       0       0      15     -1.52770552      0.33936517     -0.00742431   -437.91480165      0.00727123      0.00495734     -0.00771663     -0.00110087
C               1.63528177      0.29462405      0.25490211     -6.07019905     -0.02107170     -0.38694009     -3.86014928     -0.54134813     -0.41059936       6       0       0       0      13      1.96514426     -0.64015535     -0.20462123   -154.07515388      0.00508415     -0.01799552     -0.00256989     -0.00515880