9
Lattice="13.0 0.0 0.0 0.0 9.0 0.0 0.0 0.0 9.0" Properties=species:S:1:pos:R:3:momenta:R:3:forces:R:3 EPS_SCF=1e-06 energy=-1398.1498670527349 units=gap_units Integrated_spin_density=6.55109e-05 opt_dir=/home/tks32/dft_pbe/apr_8_opt_fragments_subset/singlepoint_1_CO2 time=45.0 free_energy=-1398.1498670527349 pbc="T T T"
C        0.20721718      -0.01996181       0.02758488      -0.70529739      -0.21554461       0.03084061       2.34437932       0.75285204      -0.02842145
O        0.20001666      -1.15867515      -0.27846720      -4.69629755       0.22684929       0.67106553      -1.45373882       0.26229640       0.24352760
O        1.01699666       0.98305221       0.32053038       0.95080043      -2.22288219      -0.14487826      -1.03853803      -1.67748760      -0.83697082
C        3.54016415       0.52910545       0.37562515       0.71031219       2.17650763       0.49257679       0.23353276      -5.08630798      -1.66429106
C        3.00292857      -0.47987000      -0.42002979       3.97389217      -0.66991614      -1.00108177       3.78594186       2.78418476       4.20095108
H        3.25529520       1.49613121       0.24357970      -0.33863996      -0.06101674      -0.15200695      -1.06550785       2.89522087      -0.40114536
H        4.51017732       0.39202632       0.91069855       0.23059481      -0.25800777       0.25961393      -0.73983302      -0.24330193      -0.44950462
H        1.56510007       1.05876909      -0.52703494      -0.15708762       0.78027349      -0.30561937      -0.50768500       0.87043165       0.76591231
H        2.24386361      -0.50825042      -1.09445237       0.03172293       0.24373704       0.14948950      -1.55855123      -0.55788821      -1.83005768
9
Lattice="13.0 0.0 0.0 0.0 9.0 0.0 0.0 0.0 9.0" Properties=species:S:1:pos:R:3:momenta:R:3:forces:R:3 EPS_SCF=1e-06 energy=-1398.6172250033549 units=gap_units Integrated_spin_density=6.55109e-05 opt_dir=/home/tks32/dft_pbe/apr_8_opt_fragments_subset/singlepoint_1_CO2 time=45.0 free_energy=-1398.6172250033549 pbc="T T T"
C        0.23066097      -0.01243329       0.02730067      -0.70529739      -0.21554461       0.03084061       1.23280886      -0.63234300      -0.27773232
O        0.18547927      -1.15605219      -0.27603192      -4.69629755       0.22684929       0.67106553      -1.42595539       0.43854446       0.32666214
O        1.00661128       0.96627733       0.31216067       0.95080043      -2.22288219      -0.14487826      -0.56056775      -0.48072930       0.24610508
C        3.54249948       0.47824237       0.35898224       0.71031219       2.17650763       0.49257679       0.03687366      -0.14758067      -0.75805902
C        3.04078799      -0.45202815      -0.37802028       3.97389217      -0.66991614      -1.00108177       0.57071327       0.54051460       0.48238213
H        3.24464012       1.52508342       0.23956825      -0.33863996      -0.06101674      -0.15200695      -0.15009013       0.16255767       0.06023031
H        4.50277899       0.38959330       0.90620350       0.23059481      -0.25800777       0.25961393      -0.25933713      -0.42204925      -0.07681262
H        1.56002322       1.06747341      -0.51937582      -0.15708762       0.78027349      -0.30561937      -0.46106000       1.34290566      -0.02679228
H        2.22827810      -0.51382930      -1.11275295       0.03172293       0.24373704       0.14948950       1.01661462      -0.80182017       0.02401658
9
Lattice="13.0 0.0 0.0 0.0 9.0 0.0 0.0 0.0 9.0" Properties=species:S:1:pos:R:3:momenta:R:3:forces:R:3 EPS_SCF=1e-06 energy=-1398.2863457670007 units=gap_units Integrated_spin_density=6.55109e-05 opt_dir=/home/tks32/dft_pbe/apr_8_opt_fragments_subset/singlepoint_1_CO2 time=45.0 free_energy=-1398.2863457670007 pbc="T T T"
C        0.26790526      -0.01393879       0.02340769      -0.70529739      -0.21554461       0.03084061      -0.51737326      -1.94504793      -0.44569871
O        0.15372130      -1.14794834      -0.26956220      -4.69629755       0.22684929       0.67106553      -1.44903758      -0.33365367       0.10541818
O        0.98992324       0.94488431       0.30785093       0.95080043      -2.22288219      -0.14487826       0.69052220       1.51912249       1.43450438
C        3.54508417       0.43053288       0.33407607       0.71031219       2.17650763       0.49257679       3.24422817       8.73319289       4.65652644
C        3.08233553      -0.41989190      -0.33389444       3.97389217      -0.66991614      -1.00108177      -4.68279536      -7.05253780      -6.66290135
H        3.23308497       1.55326926       0.23674671      -0.33863996      -0.06101674      -0.15200695       0.39855966      -1.32737709       0.28057291
H        4.49272421       0.38187642       0.90115202       0.23059481      -0.25800777       0.25961393       0.23004778      -0.49064681       0.31443320
H        1.54941601       1.09289400      -0.51283348      -0.15708762       0.78027349      -0.30561937      -0.53067490       1.80777603      -0.80333044
H        2.22756473      -0.52935094      -1.12890894       0.03172293       0.24373704       0.14948950       2.61652329      -0.91082812       1.12047539
9
Lattice="13.0 0.0 0.0 0.0 9.0 0.0 0.0 0.0 9.0" Properties=species:S:1:pos:R:3:momenta:R:3:forces:R:3 EPS_SCF=1e-06 energy=-1398.696149308404 units=gap_units Integrated_spin_density=6.55109e-05 opt_dir=/home/tks32/dft_pbe/apr_8_opt_fragments_subset/singlepoint_1_CO2 time=45.0 free_energy=-1398.696149308404 pbc="T T T"
C        0.26661183      -0.01880141       0.02229344      -0.70529739      -0.21554461       0.03084061      -0.11482463      -1.14132424      -0.23007792
O        0.15009870      -1.14878247      -0.26929866      -4.69629755       0.22684929       0.67106553      -1.50751574      -0.60882612       0.01006838
O        0.99164954       0.94868212       0.31143719       0.95080043      -2.22288219      -0.14487826       0.42766636       0.96775903       1.07394167
C        3.55319474       0.45236586       0.34571739       0.71031219       2.17650763       0.49257679       0.20446883       3.28228633       0.44126854
C        3.07062854      -0.43752325      -0.35055169       3.97389217      -0.66991614      -1.00108177      -1.43223190      -1.77447242      -2.11210272
H        3.23408137       1.54995082       0.23744815      -0.33863996      -0.06101674      -0.15200695       0.34605899      -1.08135391       0.26583090
H        4.49329933       0.38064980       0.90193811       0.23059481      -0.25800777       0.25961393       0.38998622      -0.43208174       0.36479661
H        1.54808932       1.09741344      -0.51484180      -0.15708762       0.78027349      -0.30561937      -0.40483663       1.61940868      -0.57442235
H        2.23410604      -0.53162801      -1.12610776       0.03172293       0.24373704       0.14948950       2.09122849      -0.83139561       0.76069689
9
Lattice="13.0 0.0 0.0 0.0 9.0 0.0 0.0 0.0 9.0" Properties=species:S:1:pos:R:3:momenta:R:3:forces:R:3 EPS_SCF=1e-06 energy=-1398.8185032753427 units=gap_units Integrated_spin_density=6.55109e-05 opt_dir=/home/tks32/dft_pbe/apr_8_opt_fragments_subset/singlepoint_1_CO2 time=45.0 free_energy=-1398.8185032753427 pbc="T T T"
C        0.26508640      -0.02676936       0.02056660      -0.70529739      -0.21554461       0.03084061       0.50930071       0.02580862       0.08249890
O        0.14209443      -1.15144908      -0.26902978      -4.69629755       0.22684929       0.67106553      -1.55112561      -0.91327121      -0.10286626
O        0.99454902       0.95514554       0.31804437       0.95080043      -2.22288219      -0.14487826       0.03185596       0.10186458       0.48021130
C        3.56113769       0.48234444       0.35758318       0.71031219       2.17650763       0.49257679      -0.99904816       0.34984166      -1.33864733
C        3.05558522      -0.45897547      -0.37218971       3.97389217      -0.66991614      -1.00108177       0.54384531       0.64114626       0.47781648
H        3.23606713       1.54356135       0.23891597      -0.33863996      -0.06101674      -0.15200695       0.16715349      -0.46585646       0.19408331
H        4.49504417       0.37818615       0.90379354       0.23059481      -0.25800777       0.25961393       0.47000452      -0.35444017       0.35070133
H        1.54562134       1.10657699      -0.51845692      -0.15708762       0.78027349      -0.30561937      -0.33189668       1.34836698      -0.22152567
H        2.24657402      -0.53629366      -1.12119288       0.03172293       0.24373704       0.14948950       1.15991046      -0.73346026       0.07772795
9
Lattice="13.0 0.0 0.0 0.0 9.0 0.0 0.0 0.0 9.0" Properties=species:S:1:pos:R:3:momenta:R:3:forces:R:3 EPS_SCF=1e-06 energy=-1398.8312321003962 units=gap_units Integrated_spin_density=6.55109e-05 opt_dir=/home/tks32/dft_pbe/apr_8_opt_fragments_subset/singlepoint_1_CO2 time=45.0 free_energy=-1398.8312321003962 pbc="T T T"
C        0.26576508      -0.03383654       0.01934476      -0.70529739      -0.21554461       0.03084061       0.97811663       0.64390663       0.25724512
O        0.12864237      -1.15752785      -0.26920216      -4.69629755       0.22684929       0.67106553      -1.51528525      -0.74576402      -0.08819314
O        0.99728688       0.96137296       0.32592521       0.95080043      -2.22288219      -0.14487826      -0.26925928      -0.66171046      -0.10739787
C        3.56426199       0.51073438       0.36287008       0.71031219       2.17650763       0.49257679      -0.57915919      -0.85296860      -1.19819845
C        3.04423694      -0.47569982      -0.38973919       3.97389217      -0.66991614      -1.00108177       1.44536023       0.94873930       1.46884403
H        3.23852763       1.53593428       0.24101881      -0.33863996      -0.06101674      -0.15200695      -0.14340798       0.46875785       0.05951728
H        4.49850779       0.37454111       0.90687613       0.23059481      -0.25800777       0.25961393       0.29258174      -0.24546101       0.19967444
H        1.54206321       1.12025564      -0.52260288      -0.15708762       0.78027349      -0.30561937      -0.35690001       1.10224423       0.11920743
H        2.26246753      -0.54344725      -1.11645639       0.03172293       0.24373704       0.14948950       0.14795311      -0.65774394      -0.71069882
9
Lattice="13.0 0.0 0.0 0.0 9.0 0.0 0.0 0.0 9.0" Properties=species:S:1:pos:R:3:momenta:R:3:forces:R:3 EPS_SCF=1e-06 energy=-1398.8405315726443 units=gap_units Integrated_spin_density=6.55109e-05 opt_dir=/home/tks32/dft_pbe/apr_8_opt_fragments_subset/singlepoint_1_CO2 time=45.0 free_energy=-1398.8405315726443 pbc="T T T"
C        0.26637640      -0.03343410       0.01950553      -0.70529739      -0.21554461       0.03084061       0.93228429       0.51757699       0.22534918
O        0.12769531      -1.15799395      -0.26925728      -4.69629755       0.22684929       0.67106553      -1.50492336      -0.65635252      -0.06428688
O        0.99711859       0.96095939       0.32585808       0.95080043      -2.22288219      -0.14487826      -0.24739749      -0.62595652      -0.08452687
C        3.56390002       0.51020128       0.36212121       0.71031219       2.17650763       0.49257679      -0.52952531      -0.79842126      -1.14785378
C        3.04514029      -0.47510686      -0.38882117       3.97389217      -0.66991614      -1.00108177       1.38219465       0.90309349       1.39239502
H        3.23843800       1.53622725       0.24105601      -0.33863996      -0.06101674      -0.15200695      -0.13921732       0.45487055       0.06096689
H        4.49869065       0.37438770       0.90700092       0.23059481      -0.25800777       0.25961393       0.27104620      -0.24308385       0.18904223
H        1.54184015       1.12094455      -0.52252837      -0.15708762       0.78027349      -0.30561937      -0.35791135       1.10876205       0.10513172
H        2.26256000      -0.54385834      -1.11690058       0.03172293       0.24373704       0.14948950       0.19344968      -0.66048893      -0.67621749
9
Lattice="13.0 0.0 0.0 0.0 9.0 0.0 0.0 0.0 9.0" Properties=species:S:1:pos:R:3:momenta:R:3:forces:R:3 EPS_SCF=1e-06 energy=-1398.857613408793 units=gap_units Integrated_spin_density=6.55109e-05 opt_dir=/home/tks32/dft_pbe/apr_8_opt_fragments_subset/singlepoint_1_CO2 time=45.0 free_energy=-1398.857613408793 pbc="T T T"
C        0.26757012      -0.03271464       0.01980579      -0.70529739      -0.21554461       0.03084061       0.84411151       0.28139969       0.16570957
O        0.12580416      -1.15886651      -0.26935127      -4.69629755       0.22684929       0.67106553      -1.48488601      -0.49081611      -0.02007181
O        0.99679636       0.96015509       0.32573933       0.95080043      -2.22288219      -0.14487826      -0.20502480      -0.55724059      -0.04082654
C        3.56320873       0.50917036       0.36065489       0.71031219       2.17650763       0.49257679      -0.43962794      -0.70360255      -1.05876667
C        3.04690740      -0.47394982      -0.38703381       3.97389217      -0.66991614      -1.00108177       1.26654511       0.82548760       1.25334574
H        3.23826124       1.53680491       0.24113157      -0.33863996      -0.06101674      -0.15200695      -0.13107567       0.42791023       0.06375983
H        4.49904233       0.37408183       0.90724373       0.23059481      -0.25800777       0.25961393       0.22994669      -0.23850416       0.16868985
H        1.54139234       1.12232991      -0.52238875      -0.15708762       0.78027349      -0.30561937      -0.36037380       1.12096386       0.07821404
H        2.26277676      -0.54468424      -1.11776712       0.03172293       0.24373704       0.14948950       0.28038492      -0.66559797      -0.61005400
9
Lattice="13.0 0.0 0.0 0.0 9.0 0.0 0.0 0.0 9.0" Properties=species:S:1:pos:R:3:momenta:R:3:forces:R:3 EPS_SCF=1e-06 energy=-1398.8801298229 units=gap_units Integrated_spin_density=6.55109e-05 opt_dir=/home/tks32/dft_pbe/apr_8_opt_fragments_subset/singlepoint_1_CO2 time=45.0 free_energy=-1398.8801298229 pbc="T T T"
C        0.26928870      -0.03185235       0.02020248      -0.70529739      -0.21554461       0.03084061       0.72148199      -0.03128318       0.08676755
O        0.12296884      -1.16002640      -0.26945117      -4.69629755       0.22684929       0.67106553      -1.45645855      -0.27507395       0.03740688
O        0.99634988       0.95900594       0.32560128       0.95080043      -2.22288219      -0.14487826      -0.14555282      -0.46203775       0.01929364
C        3.56225104       0.50770553       0.35852715       0.71031219       2.17650763       0.49257679      -0.32624682      -0.59377456      -0.95150624
C        3.04946443      -0.47227846      -0.38446863       3.97389217      -0.66991614      -1.00108177       1.11735470       0.74010497       1.07648508
H        3.23800211       1.53765139       0.24124824      -0.33863996      -0.06101674      -0.15200695      -0.11939498       0.38933531       0.06770512
H        4.49953433       0.37362452       0.90759100       0.23059481      -0.25800777       0.25961393       0.17300114      -0.23204755       0.14035027
H        1.54071427       1.12443226      -0.52220339      -0.15708762       0.78027349      -0.30561937      -0.36525863       1.13716811       0.04097802
H        2.26318583      -0.54593554      -1.11901260       0.03172293       0.24373704       0.14948950       0.40107397      -0.67239141      -0.51748033
9
Lattice="13.0 0.0 0.0 0.0 9.0 0.0 0.0 0.0 9.0" Properties=species:S:1:pos:R:3:momenta:R:3:forces:R:3 EPS_SCF=1e-06 energy=-1398.9059657616972 units=gap_units Integrated_spin_density=6.55109e-05 opt_dir=/home/tks32/dft_pbe/apr_8_opt_fragments_subset/singlepoint_1_CO2 time=45.0 free_energy=-1398.9059657616972 pbc="T T T"
C        0.27144526      -0.03110274       0.02063285      -0.70529739      -0.21554461       0.03084061       0.57771572      -0.37168079       0.00094907
O        0.11918598      -1.16130281      -0.26950947      -4.69629755       0.22684929       0.67106553      -1.42199728      -0.04518331       0.09837133
O        0.99582501       0.95758116       0.32549336       0.95080043      -2.22288219      -0.14487826      -0.07542147      -0.35162236       0.08872793
C        3.56111335       0.50588530       0.35580791       0.71031219       2.17650763       0.49257679      -0.21037149      -0.49987280      -0.85135679
C        3.05271021      -0.47014865      -0.38125006       3.97389217      -0.66991614      -1.00108177       0.95860653       0.67661675       0.89275362
H        3.23766798       1.53874231       0.24141047      -0.33863996      -0.06101674      -0.15200695      -0.10465052       0.34097330       0.07255924
H        4.50012336       0.37301681       0.90802218       0.23059481      -0.25800777       0.25961393       0.10523062      -0.22417214       0.10638763
H        1.53979527       1.12728557      -0.52200194      -0.15708762       0.78027349      -0.30561937      -0.37416489       1.15496166      -0.00278100
H        2.26389301      -0.54763005      -1.12057094       0.03172293       0.24373704       0.14948950       0.54505277      -0.68002032      -0.40561103
9
Lattice="13.0 0.0 0.0 0.0 9.0 0.0 0.0 0.0 9.0" Properties=species:S:1:pos:R:3:momenta:R:3:forces:R:3 EPS_SCF=1e-06 energy=-1398.9341891301742 units=gap_units Integrated_spin_density=6.55109e-05 opt_dir=/home/tks32/dft_pbe/apr_8_opt_fragments_subset/singlepoint_1_CO2 time=45.0 free_energy=-1398.9341891301742 pbc="T T T"
C        0.27392304      -0.03077349       0.02102107      -0.70529739      -0.21554461       0.03084061       0.43176628      -0.68032873      -0.07651155
O        0.11445992      -1.16249357      -0.26947052      -4.69629755       0.22684929       0.67106553      -1.38498232       0.15774411       0.15168741
O        0.99528254       0.95597210       0.32547867       0.95080043      -2.22288219      -0.14487826      -0.00460836      -0.24241940       0.15778522
C        3.55989393       0.50378255       0.35256942       0.71031219       2.17650763       0.49257679      -0.11391660      -0.45316970      -0.78404897
C        3.05652225      -0.46760304      -0.37752370       3.97389217      -0.66991614      -1.00108177       0.81563140       0.66520415       0.73428390
H        3.23727001       1.54004101       0.24162391      -0.33863996      -0.06101674      -0.15200695      -0.08726661       0.28472264       0.07805766
H        4.50075128       0.37226154       0.90850911       0.23059481      -0.25800777       0.25961393       0.03235579      -0.21548135       0.06952650
H        1.53862045       1.13092688      -0.52182321      -0.15708762       0.78027349      -0.30561937      -0.38923835       1.17133279      -0.04822266
H        2.26503599      -0.54978706      -1.12235039       0.03172293       0.24373704       0.14948950       0.70025878      -0.68760450      -0.28255751
9
Lattice="13.0 0.0 0.0 0.0 9.0 0.0 0.0 0.0 9.0" Properties=species:S:1:pos:R:3:momenta:R:3:forces:R:3 EPS_SCF=1e-06 energy=-1398.9654354803083 units=gap_units Integrated_spin_density=6.55109e-05 opt_dir=/home/tks32/dft_pbe/apr_8_opt_fragments_subset/singlepoint_1_CO2 time=45.0 free_energy=-1398.9654354803083 pbc="T T T"
C        0.27658489      -0.03115763       0.02129393      -0.70529739      -0.21554461       0.03084061       0.30555679      -0.89852439      -0.13050246
O        0.10882122      -1.16340748      -0.26928374      -4.69629755       0.22684929       0.67106553      -1.34952897       0.29635709       0.18724197
O        0.99478971       0.95428147       0.32562328       0.95080043      -2.22288219      -0.14487826       0.05469688      -0.15365999       0.21565172
C        3.55868252       0.50143682       0.34887058       0.71031219       2.17650763       0.49257679      -0.05711198      -0.48201776      -0.77288062
C        3.06076888      -0.46464666      -0.37343555       3.97389217      -0.66991614      -1.00108177       0.71211642       0.73359651       0.63062605
H        3.23682455       1.54149461       0.24189407      -0.33863996      -0.06101674      -0.15200695      -0.06751506       0.22220659       0.08394630
H        4.50134877       0.37136627       0.90901688       0.23059481      -0.25800777       0.25961393      -0.04026979      -0.20673364       0.03232400
H        1.53717380       1.13537561      -0.52171059      -0.15708762       0.78027349      -0.30561937      -0.41283871       1.18314008      -0.09026441
H        2.26676507      -0.55241611      -1.12423450       0.03172293       0.24373704       0.14948950       0.85489442      -0.69436450      -0.15614255
9
Lattice="13.0 0.0 0.0 0.0 9.0 0.0 0.0 0.0 9.0" Properties=species:S:1:pos:R:3:momenta:R:3:forces:R:3 EPS_SCF=1e-06 energy=-1399.0015236886577 units=gap_units Integrated_spin_density=6.55109e-05 opt_dir=/home/tks32/dft_pbe/apr_8_opt_fragments_subset/singlepoint_1_CO2 time=45.0 free_energy=-1399.0015236886577 pbc="T T T"
C        0.27930117      -0.03244613       0.02140258      -0.70529739      -0.21554461       0.03084061       0.21801821      -0.98454218      -0.15025459
O        0.10233040      -1.16391905      -0.26891918      -4.69629755       0.22684929       0.67106553      -1.31918971       0.34732843       0.19867937
O        0.99440356       0.95259868       0.32597969       0.95080043      -2.22288219      -0.14487826       0.09165879      -0.10189231       0.25331742
C        3.55753232       0.49881991       0.34473068       0.71031219       2.17650763       0.49257679      -0.03671346      -0.57080233      -0.80793537
C        3.06533803      -0.46121620      -0.36909453       3.97389217      -0.66991614      -1.00108177       0.64702837       0.86618914       0.57623122
H        3.23635279       1.54303601       0.24222530      -0.33863996      -0.06101674      -0.15200695      -0.04542077       0.15430625       0.09001682
H        4.50184426       0.37034362       0.90950779       0.23059481      -0.25800777       0.25961393      -0.10827031      -0.19874290      -0.00300895
H        1.53543865       1.14062087      -0.52170394      -0.15708762       0.78027349      -0.30561937      -0.44703934       1.18790094      -0.12496005
H        2.26921823      -0.55551081      -1.12609404       0.03172293       0.24373704       0.14948950       0.99992821      -0.69974503      -0.03208586
9
Lattice="13.0 0.0 0.0 0.0 9.0 0.0 0.0 0.0 9.0" Properties=species:S:1:pos:R:3:momenta:R:3:forces:R:3 EPS_SCF=1e-06 energy=-1399.0469694224214 units=gap_units Integrated_spin_density=6.55109e-05 opt_dir=/home/tks32/dft_pbe/apr_8_opt_fragments_subset/singlepoint_1_CO2 time=45.0 free_energy=-1399.0469694224214 pbc="T T T"
C        0.28226579      -0.03496594       0.02132027      -0.70529739      -0.21554461       0.03084061       0.17801258      -0.91061401      -0.12834315
O        0.09423739      -1.16398657      -0.26830719      -4.69629755       0.22684929       0.67106553      -1.29376237       0.29765597       0.18202117
O        0.99413709       0.95080395       0.32665267       0.95080043      -2.22288219      -0.14487826       0.09985395      -0.09759373       0.26615795
C        3.55634723       0.49550782       0.33961117       0.71031219       2.17650763       0.49257679       0.06775954      -0.48664162      -0.71571138
C        3.07067917      -0.45672540      -0.36406872       3.97389217      -0.66991614      -1.00108177       0.49513281       0.83544952       0.39011109
H        3.23582836       1.54475699       0.24266697      -0.33863996      -0.06101674      -0.15200695      -0.01810609       0.07336369       0.09672246
H        4.50219797       0.36908003       0.90998999       0.23059481      -0.25800777       0.25961393      -0.17387667      -0.19139591      -0.03743047
H        1.53315591       1.14731487      -0.52185527      -0.15708762       0.78027349      -0.30561937      -0.49840993       1.18326398      -0.15278820
H        2.27291051      -0.55945885      -1.12797552       0.03172293       0.24373704       0.14948950       1.14339617      -0.70348788       0.09926054
9
Lattice="13.0 0.0 0.0 0.0 9.0 0.0 0.0 0.0 9.0" Properties=species:S:1:pos:R:3:momenta:R:3:forces:R:3 EPS_SCF=1e-06 energy=-1399.0979040243792 units=gap_units Integrated_spin_density=6.55109e-05 opt_dir=/home/tks32/dft_pbe/apr_8_opt_fragments_subset/singlepoint_1_CO2 time=45.0 free_energy=-1399.0979040243792 pbc="T T T"
C        0.28548145      -0.03888246       0.02103867      -0.70529739      -0.21554461       0.03084061       0.19738848      -0.65859990      -0.06005927
O        0.08420016      -1.16358961      -0.26741698      -4.69629755       0.22684929       0.67106553      -1.27466649       0.14260327       0.13525551
O        0.99402862       0.94887310       0.32773445       0.95080043      -2.22288219      -0.14487826       0.07313895      -0.15208454       0.24776882
C        3.55527829       0.49146681       0.33342183       0.71031219       2.17650763       0.49257679       0.32758437      -0.06858955      -0.38315877
C        3.07674439      -0.45097258      -0.35847968       3.97389217      -0.66991614      -1.00108177       0.18575146       0.47969231      -0.03514589
H        3.23528038       1.54657699       0.24325545      -0.33863996      -0.06101674      -0.15200695       0.01476718      -0.01815276       0.10366553
H        4.50227756       0.36752941       0.91040957       0.23059481      -0.25800777       0.25961393      -0.22843658      -0.18553301      -0.06657789
H        1.53011675       1.15579334      -0.52224337      -0.15708762       0.78027349      -0.30561937      -0.56674013       1.16369355      -0.17177123
H        2.27835183      -0.56446810      -1.12968557       0.03172293       0.24373704       0.14948950       1.27121275      -0.70302938       0.23002318
9
Lattice="13.0 0.0 0.0 0.0 9.0 0.0 0.0 0.0 9.0" Properties=species:S:1:pos:R:3:momenta:R:3:forces:R:3 EPS_SCF=1e-06 energy=-1399.1456113905554 units=gap_units Integrated_spin_density=6.55109e-05 opt_dir=/home/tks32/dft_pbe/apr_8_opt_fragments_subset/singlepoint_1_CO2 time=45.0 free_energy=-1399.1456113905554 pbc="T T T"
C        0.28906165      -0.04406848       0.02064071      -0.70529739      -0.21554461       0.03084061       0.26479553      -0.27834927       0.04182245
O        0.07172508      -1.16291425      -0.26626672      -4.69629755       0.22684929       0.67106553      -1.25803537      -0.07733073       0.06780324
O        0.99406537       0.94665711       0.32929688       0.95080043      -2.22288219      -0.14487826       0.01943702      -0.25826462       0.20011682
C        3.55486436       0.48732197       0.32652446       0.71031219       2.17650763       0.49257679       0.75336372       0.73938754       0.22293156
C        3.08312893      -0.44431777      -0.35300367       3.97389217      -0.66991614      -1.00108177      -0.28874598      -0.26442372      -0.71613660
H        3.23476582       1.54834694       0.24404398      -0.33863996      -0.06101674      -0.15200695       0.05075084      -0.10685636       0.10946360
H        4.50190558       0.36562466       0.91069444       0.23059481      -0.25800777       0.25961393      -0.25414845      -0.18064234      -0.08146777
H        1.52598255       1.16650275      -0.52296752      -0.15708762       0.78027349      -0.30561937      -0.63878150       1.11940612      -0.18170493
H        2.28626008      -0.57082603      -1.13092819       0.03172293       0.24373704       0.14948950       1.35136420      -0.69292661       0.33717163
9
Lattice="13.0 0.0 0.0 0.0 9.0 0.0 0.0 0.0 9.0" Properties=species:S:1:pos:R:3:momenta:R:3:forces:R:3 EPS_SCF=1e-06 energy=-1399.1906370940628 units=gap_units Integrated_spin_density=6.55109e-05 opt_dir=/home/tks32/dft_pbe/apr_8_opt_fragments_subset/singlepoint_1_CO2 time=45.0 free_energy=-1399.1906370940628 pbc="T T T"
C        0.29322436      -0.04985727       0.02034124      -0.70529739      -0.21554461       0.03084061       0.32773635       0.07023442       0.13621806
O        0.05645197      -1.16242059      -0.26496888      -4.69629755       0.22684929       0.67106553      -1.22980664      -0.25097964       0.00781120
O        0.99414640       0.94386439       0.33130724       0.95080043      -2.22288219      -0.14487826      -0.03054515      -0.37802497       0.13856586
C        3.55617910       0.48489890       0.32018425       0.71031219       2.17650763       0.49257679       1.15458745       1.60197613       0.85237063
C        3.08880899      -0.43831352      -0.34920513       3.97389217      -0.66991614      -1.00108177      -0.72930860      -1.07795970      -1.37129407
H        3.23437100       1.54986017       0.24507796      -0.33863996      -0.06101674      -0.15200695       0.08249505      -0.16392859       0.11189576
H        4.50095388       0.36331889       0.91079076       0.23059481      -0.25800777       0.25961393      -0.22632913      -0.17287337      -0.06950235
H        1.52041281       1.17970451      -0.52410306      -0.15708762       0.78027349      -0.30561937      -0.68099651       1.03843469      -0.18304651
H        2.29721092      -0.57872858      -1.13139002       0.03172293       0.24373704       0.14948950       1.33216718      -0.66687896       0.37698143
9
Lattice="13.0 0.0 0.0 0.0 9.0 0.0 0.0 0.0 9.0" Properties=species:S:1:pos:R:3:momenta:R:3:forces:R:3 EPS_SCF=1e-06 energy=-1399.256010430013 units=gap_units Integrated_spin_density=6.55109e-05 opt_dir=/home/tks32/dft_pbe/apr_8_opt_fragments_subset/singlepoint_1_CO2 time=45.0 free_energy=-1399.256010430013 pbc="T T T"
C        0.29815970      -0.05544262       0.02037440      -0.70529739      -0.21554461       0.03084061       0.31769807       0.20466963       0.17587870
O        0.03827766      -1.16253947      -0.26365941      -4.69629755       0.22684929       0.67106553      -1.16567830      -0.25532772      -0.01251268