9
Lattice="13.0 0.0 0.0 0.0 9.0 0.0 0.0 0.0 9.0" Properties=species:S:1:pos:R:3:momenta:R:3:forces:R:3 EPS_SCF=1e-06 energy=-1401.3418572985995 units=gap_units Integrated_spin_density=6.55109e-05 opt_dir=/home/tks32/dft_pbe/apr_8_opt_fragments_subset/singlepoint_1_CO2 time=5.0 free_energy=-1401.3418572985995 pbc="T T T"
C        0.16818982       0.01925811      -0.01085597       3.65034013      -0.26394012      -0.45399097      -0.85835258      -3.84630869      -1.04632120
O        0.04440527      -1.08532600      -0.30865004       5.67886877       0.51872535       0.32313584      -0.58112971      -3.74934465      -1.23641466
O        0.29955189       1.07445253       0.32120421       5.56681262       0.00639366       0.23174546       0.41707798       7.67174869       2.25093865
C        4.27380604       0.35473192       0.25930972      -5.65370070       0.16709423      -0.13705955      -0.93536096      -2.28856540      -1.53465347
C        3.18314275      -0.38546479      -0.24578985      -6.65067701      -1.34894459       0.20491727       2.67646060       1.52320069       0.11226296
H        4.01192153       1.25815183       0.86039325      -0.71443047       0.30197197       0.07206222       1.18893818      -0.40118930       0.02163452
H        5.31036236      -0.08253379       0.01955210      -0.81175678       0.09106857       0.19400007      -0.94097478       1.52892809       0.97588577
H        2.26822232       0.15098932       0.01062929      -0.62076290       0.40360439       0.04915803      -0.34630815      -0.25048398      -0.04128987
H        3.41692408      -1.01729388      -1.12157683      -0.44469366       0.12402654      -0.48396837      -0.62035060      -0.18798545       0.49795730
9
Lattice="13.0 0.0 0.0 0.0 9.0 0.0 0.0 0.0 9.0" Properties=species:S:1:pos:R:3:momenta:R:3:forces:R:3 EPS_SCF=1e-06 energy=-1401.572935374575 units=gap_units Integrated_spin_density=6.55109e-05 opt_dir=/home/tks32/dft_pbe/apr_8_opt_fragments_subset/singlepoint_1_CO2 time=5.0 free_energy=-1401.572935374575 pbc="T T T"
C        0.15960629      -0.01920498      -0.02131918       3.65034013      -0.26394012      -0.45399097       0.54591213       6.60789972       2.16274613
O        0.03859397      -1.12281945      -0.32101419       5.67886877       0.51872535       0.32313584      -0.44637788      -2.43128578      -0.81880736
O        0.30372267       1.15117002       0.34371360       5.56681262       0.00639366       0.23174546      -0.90808743      -4.13175899      -1.37731813
C        4.26445243       0.33184627       0.24396319      -5.65370070       0.16709423      -0.13705955       1.51092334       0.60179517       0.40341445
C        3.20990736      -0.37023278      -0.24466722      -6.65067701      -1.34894459       0.20491727      -0.56531409      -0.35041080      -1.30878867
H        4.02381091       1.25413994       0.86060960      -0.71443047       0.30197197       0.07206222       1.17213919      -0.95555328      -0.31875810
H        5.30095261      -0.06724451       0.02931096      -0.81175678       0.09106857       0.19400007      -0.58099832       1.21855678       0.78418297
H        2.26475924       0.14848448       0.01021639      -0.62076290       0.40360439       0.04915803      -0.08371898      -0.39747180      -0.11667130
H        3.41072057      -1.01917373      -1.11659726      -0.44469366       0.12402654      -0.48396837      -0.64447796      -0.16177101       0.59000001
9
Lattice="13.0 0.0 0.0 0.0 9.0 0.0 0.0 0.0 9.0" Properties=species:S:1:pos:R:3:momenta:R:3:forces:R:3 EPS_SCF=1e-06 energy=-1401.7334412260154 units=gap_units Integrated_spin_density=6.55109e-05 opt_dir=/home/tks32/dft_pbe/apr_8_opt_fragments_subset/singlepoint_1_CO2 time=5.0 free_energy=-1401.7334412260154 pbc="T T T"
C        0.16097107      -0.00268523      -0.01591232       3.65034013      -0.26394012      -0.45399097       0.08346695       2.75055266       1.04308121
O        0.03747803      -1.12889766      -0.32306120       5.67886877       0.51872535       0.32313584      -0.20589597      -0.38163913      -0.26484547
O        0.30145245       1.14084062       0.34027030       5.56681262       0.00639366       0.23174546      -0.69105992      -2.33151973      -0.81664700
C        4.26822974       0.33335075       0.24497172      -5.65370070       0.16709423      -0.13705955       1.07958826       0.36979649       0.23416494
C        3.20849407      -0.37110881      -0.24793919      -6.65067701      -1.34894459       0.20491727      -0.30738840      -0.10278503      -1.04512542
H        4.02674126       1.25175105       0.85981270      -0.71443047       0.30197197       0.07206222       1.14235314      -0.84564402      -0.25081893
H        5.29950012      -0.06419812       0.03127142      -0.81175678       0.09106857       0.19400007      -0.40640654       1.14588312       0.74312853
H        2.26454994       0.14749080       0.00992471      -0.62076290       0.40360439       0.04915803      -0.06385012      -0.37372516      -0.12187313
H        3.40910938      -1.01957816      -1.11512226      -0.44469366       0.12402654      -0.48396837      -0.63080741      -0.23091921       0.47893526
9
Lattice="13.0 0.0 0.0 0.0 9.0 0.0 0.0 0.0 9.0" Properties=species:S:1:pos:R:3:momenta:R:3:forces:R:3 EPS_SCF=1e-06 energy=-1401.7776524933067 units=gap_units Integrated_spin_density=6.55109e-05 opt_dir=/home/tks32/dft_pbe/apr_8_opt_fragments_subset/singlepoint_1_CO2 time=5.0 free_energy=-1401.7776524933067 pbc="T T T"
C        0.16244838       0.02038820      -0.00793434       3.65034013      -0.26394012      -0.45399097      -0.58456876      -2.92732785      -0.64497759
O        0.03585943      -1.13550659      -0.32569363       5.67886877       0.51872535       0.32313584       0.07178314       1.94446547       0.37424647
O        0.29734763       1.12458860       0.33473505       5.56681262       0.00639366       0.23174546      -0.28751556       1.01138554       0.22607491
C        4.27485002       0.33580800       0.24657798      -5.65370070       0.16709423      -0.13705955       0.23159832      -0.08228588      -0.10089517
C        3.20630509      -0.37220387      -0.25400186      -6.65067701      -1.34894459       0.20491727       0.20642984       0.38366748      -0.54009869
H        4.03278652       1.24707827       0.85834723      -0.71443047       0.30197197       0.07206222       1.07362184      -0.64060253      -0.12426214
H        5.29698045      -0.05803788       0.03525278      -0.81175678       0.09106857       0.19400007      -0.07759644       1.00406886       0.66247118
H        2.26417109       0.14548156       0.00929862      -0.62076290       0.40360439       0.04915803      -0.03630660      -0.33776748      -0.13115736
H        3.40577743      -1.02063104      -1.11236596      -0.44469366       0.12402654      -0.48396837      -0.59744578      -0.35560361       0.27859840
9
Lattice="13.0 0.0 0.0 0.0 9.0 0.0 0.0 0.0 9.0" Properties=species:S:1:pos:R:3:momenta:R:3:forces:R:3 EPS_SCF=1e-06 energy=-1401.7886684529494 units=gap_units Integrated_spin_density=6.55109e-05 opt_dir=/home/tks32/dft_pbe/apr_8_opt_fragments_subset/singlepoint_1_CO2 time=5.0 free_energy=-1401.7886684529494 pbc="T T T"
C        0.16208303       0.01855862      -0.00833745       3.65034013      -0.26394012      -0.45399097      -0.53196542      -2.48884319      -0.51923889
O        0.03590430      -1.13429130      -0.32545972       5.67886877       0.51872535       0.32313584       0.04658849       1.71642765       0.31268189
O        0.29716794       1.12522072       0.33487635       5.56681262       0.00639366       0.23174546      -0.31078808       0.80192187       0.16281191
C        4.27499477       0.33575657       0.24651492      -5.65370070       0.16709423      -0.13705955       0.21909783      -0.08431527      -0.10383920
C        3.20643411      -0.37196408      -0.25433942      -6.65067701      -1.34894459       0.20491727       0.20498306       0.38551288      -0.53245282
H        4.03345754       1.24667789       0.85826957      -0.71443047       0.30197197       0.07206222       1.06405305      -0.63029284      -0.11821789
H        5.29693195      -0.05741034       0.03566683      -0.81175678       0.09106857       0.19400007      -0.06257133       0.99460101       0.65658265
H        2.26414840       0.14527046       0.00921665      -0.62076290       0.40360439       0.04915803      -0.03671932      -0.33624357      -0.13065596
H        3.40540403      -1.02085329      -1.11219184      -0.44469366       0.12402654      -0.48396837      -0.59267829      -0.35876854       0.27232832
9
Lattice="13.0 0.0 0.0 0.0 9.0 0.0 0.0 0.0 9.0" Properties=species:S:1:pos:R:3:momenta:R:3:forces:R:3 EPS_SCF=1e-06 energy=-1401.8059582958472 units=gap_units Integrated_spin_density=6.55109e-05 opt_dir=/home/tks32/dft_pbe/apr_8_opt_fragments_subset/singlepoint_1_CO2 time=5.0 free_energy=-1401.8059582958472 pbc="T T T"
C        0.16138431       0.01518140      -0.00906130       3.65034013      -0.26394012      -0.45399097      -0.43435752      -1.67503187      -0.28673931
O        0.03597707      -1.13200403      -0.32503179       5.67886877       0.51872535       0.32313584      -0.00145830       1.27973232       0.19471383
O        0.29679010       1.12634723       0.33511673       5.56681262       0.00639366       0.23174546      -0.35217846       0.42663799       0.04997891
C        4.27527739       0.33565165       0.24638597      -5.65370070       0.16709423      -0.13705955       0.19513362      -0.08801016      -0.10940190
C        3.20669276      -0.37148020      -0.25501347      -6.65067701      -1.34894459       0.20491727       0.20159998       0.38867858      -0.51766390
H        4.03480133       1.24587929       0.85811747      -0.71443047       0.30197197       0.07206222       1.04517208      -0.60978585      -0.10615838
H        5.29684479      -0.05615396       0.03649602      -0.81175678       0.09106857       0.19400007      -0.03289588       0.97575262       0.64484848
H        2.26410244       0.14484666       0.00905202      -0.62076290       0.40360439       0.04915803      -0.03750060      -0.33305823      -0.12967500
H        3.40465585      -1.02130279      -1.11184577      -0.44469366       0.12402654      -0.48396837      -0.58351493      -0.36491540       0.26009728
9
Lattice="13.0 0.0 0.0 0.0 9.0 0.0 0.0 0.0 9.0" Properties=species:S:1:pos:R:3:momenta:R:3:forces:R:3 EPS_SCF=1e-06 energy=-1401.8227904989099 units=gap_units Integrated_spin_density=6.55109e-05 opt_dir=/home/tks32/dft_pbe/apr_8_opt_fragments_subset/singlepoint_1_CO2 time=5.0 free_energy=-1401.8227904989099 pbc="T T T"
C        0.16041054       0.01081176      -0.00994046       3.65034013      -0.26394012      -0.45399097      -0.30744226      -0.61717599       0.01352927
O        0.03604141      -1.12892926      -0.32449203       5.67886877       0.51872535       0.32313584      -0.06638920       0.68483803       0.03391424
O        0.29617039       1.12769989       0.33537276       5.56681262       0.00639366       0.23174546      -0.40215575      -0.03393604      -0.08724975
C        4.27568671       0.33548734       0.24618303      -5.65370070       0.16709423      -0.13705955       0.16166619      -0.09263753      -0.11694958
C        3.20708563      -0.37073606      -0.25603118      -6.65067701      -1.34894459       0.20491727       0.19528768       0.39202474      -0.49663858
H        4.03684071       1.24467631       0.85789628      -0.71443047       0.30197197       0.07206222       1.01724658      -0.57905309      -0.08799226
H        5.29674023      -0.05424838       0.03775436      -0.81175678       0.09106857       0.19400007       0.01096830       0.94747234       0.62720731
H        2.26403131       0.14420076       0.00880088      -0.62076290       0.40360439       0.04915803      -0.03854652      -0.32779367      -0.12822004
H        3.40351912      -1.02199711      -1.11132776      -0.44469366       0.12402654      -0.48396837      -0.57063502      -0.37373881       0.24239940
9
Lattice="13.0 0.0 0.0 0.0 9.0 0.0 0.0 0.0 9.0" Properties=species:S:1:pos:R:3:momenta:R:3:forces:R:3 EPS_SCF=1e-06 energy=-1401.834766103449 units=gap_units Integrated_spin_density=6.55109e-05 opt_dir=/home/tks32/dft_pbe/apr_8_opt_fragments_subset/singlepoint_1_CO2 time=5.0 free_energy=-1401.834766103449 pbc="T T T"
C        0.15924580       0.00630023      -0.01071902       3.65034013      -0.26394012      -0.45399097      -0.17568515       0.47919847       0.32128425
O        0.03603705      -1.12551965      -0.32397443       5.67886877       0.51872535       0.32313584      -0.13716308       0.02667083      -0.14397295
O        0.29523547       1.12888545       0.33552135       5.56681262       0.00639366       0.23174546      -0.44767660      -0.46971653      -0.21472006
C        4.27620672       0.33525258       0.24589070      -5.65370070       0.16709423      -0.13705955       0.12181148      -0.09702993      -0.12547807
C        3.20762238      -0.36969866      -0.25741292      -6.65067701      -1.34894459       0.20491727       0.18459771       0.39358123      -0.47078268
H        4.03963024       1.24305053       0.85761468      -0.71443047       0.30197197       0.07206222       0.98042806      -0.53785266      -0.06346966
H        5.29665641      -0.05164471       0.03947513      -0.81175678       0.09106857       0.19400007       0.06842091       0.90951681       0.60344549
H        2.26393113       0.14331201       0.00845460      -0.62076290       0.40360439       0.04915803      -0.03967518      -0.31957608      -0.12623112
H        3.40196087      -1.02297254      -1.11063420      -0.44469366       0.12402654      -0.48396837      -0.55505814      -0.38479213       0.21992480
9
Lattice="13.0 0.0 0.0 0.0 9.0 0.0 0.0 0.0 9.0" Properties=species:S:1:pos:R:3:momenta:R:3:forces:R:3 EPS_SCF=1e-06 energy=-1401.8431774100468 units=gap_units Integrated_spin_density=6.55109e-05 opt_dir=/home/tks32/dft_pbe/apr_8_opt_fragments_subset/singlepoint_1_CO2 time=5.0 free_energy=-1401.8431774100468 pbc="T T T"
C        0.15802005       0.00272394      -0.01109517       3.65034013      -0.26394012      -0.45399097      -0.07071088       1.34729551       0.55962583
O        0.03589456      -1.12242406      -0.32365403       5.67886877       0.51872535       0.32313584      -0.19699296      -0.54658092      -0.29849428
O        0.29394180       1.12947795       0.33543818       5.56681262       0.00639366       0.23174546      -0.47497883      -0.76282345      -0.29650249
C        4.27679778       0.33494327       0.24550084      -5.65370070       0.16709423      -0.13705955       0.08095888      -0.09968242      -0.13347723
C        3.20829194      -0.36836740      -0.25913207      -6.65067701      -1.34894459       0.20491727       0.16855613       0.39081861      -0.44286111
H        4.04313123       1.24104400       0.85729713      -0.71443047       0.30197197       0.07206222       0.93612788      -0.48755242      -0.03331117
H        5.29665009      -0.04838264       0.04163342      -0.81175678       0.09106857       0.19400007       0.13624366       0.86315151       0.57425493
H        2.26380089       0.14218931       0.00801543      -0.62076290       0.40360439       0.04915803      -0.04066703      -0.30756826      -0.12364523
H        3.39999772      -1.02423913      -1.10978784      -0.44469366       0.12402654      -0.48396837      -0.53853685      -0.39705816       0.19441076
9
Lattice="13.0 0.0 0.0 0.0 9.0 0.0 0.0 0.0 9.0" Properties=species:S:1:pos:R:3:momenta:R:3:forces:R:3 EPS_SCF=1e-06 energy=-1401.8531968021464 units=gap_units Integrated_spin_density=6.55109e-05 opt_dir=/home/tks32/dft_pbe/apr_8_opt_fragments_subset/singlepoint_1_CO2 time=5.0 free_energy=-1401.8531968021464 pbc="T T T"
C        0.15684958       0.00078765      -0.01090103       3.65034013      -0.26394012      -0.45399097      -0.01375604       1.80614969       0.67747523
O        0.03557882      -1.12015827      -0.32364979       5.67886877       0.51872535       0.32313584      -0.23262876      -0.91411029      -0.39634336
O        0.29232540       1.12928514       0.33508110       5.56681262       0.00639366       0.23174546      -0.47738800      -0.85363630      -0.31519893
C        4.27740680       0.33457002       0.24502293      -5.65370070       0.16709423      -0.13705955       0.04474465      -0.09955102      -0.13960841
C        3.20905497      -0.36679728      -0.26110083      -6.65067701      -1.34894459       0.20491727       0.14755192       0.38201641      -0.41608767
H        4.04717314       1.23877406       0.85697962      -0.71443047       0.30197197       0.07206222       0.88692289      -0.43137435       0.00056770
H        5.29677408      -0.04462520       0.04412246      -0.81175678       0.09106857       0.19400007       0.20885710       0.81137251       0.54140512
H        2.26364497       0.14088612       0.00750249      -0.62076290       0.40360439       0.04915803      -0.04145073      -0.29169320      -0.12046971
H        3.39771830      -1.02575699      -1.10884106      -0.44469366       0.12402654      -0.48396837      -0.52285304      -0.40917345       0.16826003
9
Lattice="13.0 0.0 0.0 0.0 9.0 0.0 0.0 0.0 9.0" Properties=species:S:1:pos:R:3:momenta:R:3:forces:R:3 EPS_SCF=1e-06 energy=-1401.868478627378 units=gap_units Integrated_spin_density=6.55109e-05 opt_dir=/home/tks32/dft_pbe/apr_8_opt_fragments_subset/singlepoint_1_CO2 time=5.0 free_energy=-1401.868478627378 pbc="T T T"
C        0.15578357       0.00069646      -0.01010686       3.65034013      -0.26394012      -0.45399097      -0.01135910       1.79604722       0.65839234
O        0.03508195      -1.11895489      -0.32400837       5.67886877       0.51872535       0.32313584      -0.23863659      -1.02314371      -0.42237322
O        0.29043414       1.12833107       0.33447153       5.56681262       0.00639366       0.23174546      -0.45434747      -0.73545437      -0.26965914
C        4.27799582       0.33414306       0.24446515      -5.65370070       0.16709423      -0.13705955       0.01711933      -0.09612318      -0.14305395
C        3.20987661      -0.36503488      -0.26325316      -6.65067701      -1.34894459       0.20491727       0.12234486       0.36619530      -0.39269150
H        4.05162183       1.23633669       0.85669438      -0.71443047       0.30197197       0.07206222       0.83450375      -0.37200792       0.03648565
H        5.29707664      -0.04050163       0.04685764      -0.81175678       0.09106857       0.19400007       0.28158432       0.75664651       0.50632849
H        2.26346673       0.13944655       0.00693069      -0.62076290       0.40360439       0.04915803      -0.04218250      -0.27214381      -0.11670365
H        3.39518875      -1.02749719      -1.10783512      -0.44469366       0.12402654      -0.48396837      -0.50902659      -0.42001604       0.14327498
9
Lattice="13.0 0.0 0.0 0.0 9.0 0.0 0.0 0.0 9.0" Properties=species:S:1:pos:R:3:momenta:R:3:forces:R:3 EPS_SCF=1e-06 energy=-1401.8906089665704 units=gap_units Integrated_spin_density=6.55109e-05 opt_dir=/home/tks32/dft_pbe/apr_8_opt_fragments_subset/singlepoint_1_CO2 time=5.0 free_energy=-1401.8906089665704 pbc="T T T"
C        0.15471576       0.00257839      -0.00859766       3.65034013      -0.26394012      -0.45399097      -0.06738443       1.27242662       0.48767528
O        0.03432800      -1.11888703      -0.32482717       5.67886877       0.51872535       0.32313584      -0.21210847      -0.84950848      -0.36832064
O        0.28806288       1.12657896       0.33357195       5.56681262       0.00639366       0.23174546      -0.40241846      -0.38825738      -0.15351457
C        4.27859776       0.33361482       0.24375587      -5.65370070       0.16709423      -0.13705955      -0.00019879      -0.08821587      -0.14317277
C        3.21082438      -0.36288798      -0.26581518      -6.65067701      -1.34894459       0.20491727       0.09039901       0.33972925      -0.37232447
H        4.05694238       1.23351519       0.85645206      -0.71443047       0.30197197       0.07206222       0.77344598      -0.30481107       0.07711245
H        5.29768538      -0.03558843       0.05012145      -0.81175678       0.09106857       0.19400007       0.35793434       0.69457656       0.46595946
H        2.26324397       0.13772253       0.00623645      -0.62076290       0.40360439       0.04915803      -0.04337133      -0.24650119      -0.11181485
H        3.39212555      -1.02968121      -1.10668191      -0.44469366       0.12402654      -0.48396837      -0.49629784      -0.42943844       0.11840011
9
Lattice="13.0 0.0 0.0 0.0 9.0 0.0 0.0 0.0 9.0" Properties=species:S:1:pos:R:3:momenta:R:3:forces:R:3 EPS_SCF=1e-06 energy=-1401.914599633625 units=gap_units Integrated_spin_density=6.55109e-05 opt_dir=/home/tks32/dft_pbe/apr_8_opt_fragments_subset/singlepoint_1_CO2 time=5.0 free_energy=-1401.914599633625 pbc="T T T"
C        0.15356110       0.00626281      -0.00640465       3.65034013      -0.26394012      -0.45399097      -0.17592598       0.27228894       0.17514044
O        0.03327751      -1.12003435      -0.32616527       5.67886877       0.51872535       0.32313584      -0.15481118      -0.40550490      -0.23593301
O        0.28513738       1.12428734       0.33246089       5.56681262       0.00639366       0.23174546      -0.32371218       0.16303064       0.02516567
C        4.27919405       0.33296516       0.24284820      -5.65370070       0.16709423      -0.13705955      -0.00090441      -0.07459755      -0.13863236
C        3.21189297      -0.36027447      -0.26888671      -6.65067701      -1.34894459       0.20491727       0.05141627       0.29910239      -0.35714936
H        4.06332141       1.23028301       0.85632215      -0.71443047       0.30197197       0.07206222       0.70141493      -0.23041404       0.12171010
H        5.29880046      -0.02972589       0.05402242      -0.81175678       0.09106857       0.19400007       0.43326665       0.62534328       0.41992831
H        2.26296117       0.13566142       0.00538853      -0.62076290       0.40360439       0.04915803      -0.04601308      -0.21366831      -0.10542526
H        3.38838003      -1.03245977      -1.10536968      -0.44469366       0.12402654      -0.48396837      -0.48473101      -0.43558043       0.09519548
9
Lattice="13.0 0.0 0.0 0.0 9.0 0.0 0.0 0.0 9.0" Properties=species:S:1:pos:R:3:momenta:R:3:forces:R:3 EPS_SCF=1e-06 energy=-1401.9341310169016 units=gap_units Integrated_spin_density=6.55109e-05 opt_dir=/home/tks32/dft_pbe/apr_8_opt_fragments_subset/singlepoint_1_CO2 time=5.0 free_energy=-1401.9341310169016 pbc="T T T"
C        0.15205805       0.01047162      -0.00387295       3.65034013      -0.26394012      -0.45399097      -0.29720959      -0.87484842      -0.18403993
O        0.03192071      -1.12199654      -0.32797225       5.67886877       0.51872535       0.32313584      -0.08407974       0.15660565      -0.06631652
O        0.28157707       1.12234483       0.33140963       5.56681262       0.00639366       0.23174546      -0.23702319       0.74141555       0.21273836
C        4.27978385       0.33216902       0.24166597      -5.65370070       0.16709423      -0.13705955       0.02259853      -0.05437514      -0.12818888
C        3.21305766      -0.35707372      -0.27265985      -6.65067701      -1.34894459       0.20491727       0.00694812       0.24053160      -0.34866088
H        4.07107560       1.22660796       0.85644052      -0.71443047       0.30197197       0.07206222       0.61402406      -0.15045452       0.16843208
H        5.30078704      -0.02263871       0.05874604      -0.81175678       0.09106857       0.19400007       0.49958719       0.54926147       0.36754710
H        2.26258710       0.13318233       0.00433305      -0.62076290       0.40360439       0.04915803      -0.05191024      -0.17249188      -0.09690369
H        3.38367898      -1.03610155      -1.10387430      -0.44469366       0.12402654      -0.48396837      -0.47293514      -0.43564432       0.07539236
9
Lattice="13.0 0.0 0.0 0.0 9.0 0.0 0.0 0.0 9.0" Properties=species:S:1:pos:R:3:momenta:R:3:forces:R:3 EPS_SCF=1e-06 energy=-1401.9530994402094 units=gap_units Integrated_spin_density=6.55109e-05 opt_dir=/home/tks32/dft_pbe/apr_8_opt_fragments_subset/singlepoint_1_CO2 time=5.0 free_energy=-1401.9530994402094 pbc="T T T"
C        0.14987885       0.01263204      -0.00178325       3.65034013      -0.26394012      -0.45399097      -0.35485161      -1.49787343      -0.39290092
O        0.03037889      -1.12358390      -0.32992019       5.67886877       0.51872535       0.32313584      -0.03467974       0.52564393       0.05215760
O        0.27749343       1.12212736       0.33085668       5.56681262       0.00639366       0.23174546      -0.18236515       0.98830592       0.30158478
C        4.28042185       0.33125269       0.24019571      -5.65370070       0.16709423      -0.13705955       0.06885544      -0.03032133      -0.11333119
C        3.21423056      -0.35333912      -0.27721265      -6.65067701      -1.34894459       0.20491727      -0.03547963       0.16787831      -0.34390868
H        4.08019539       1.22261025       0.85694701      -0.71443047       0.30197197       0.07206222       0.51005179      -0.06990414       0.21322337
H        5.30391383      -0.01433097       0.06428654      -0.81175678       0.09106857       0.19400007       0.54808225       0.46891106       0.30965883
H        2.26209569       0.13032163       0.00306093      -0.62076290       0.40360439       0.04915803      -0.06171195      -0.12470102      -0.08611049
H        3.37791756      -1.04072473      -1.10221490      -0.44469366       0.12402654      -0.48396837      -0.45790141      -0.42793931       0.05962671
9
Lattice="13.0 0.0 0.0 0.0 9.0 0.0 0.0 0.0 9.0" Properties=species:S:1:pos:R:3:momenta:R:3:forces:R:3 EPS_SCF=1e-06 energy=-1401.9802459629618 units=gap_units Integrated_spin_density=6.55109e-05 opt_dir=/home/tks32/dft_pbe/apr_8_opt_fragments_subset/singlepoint_1_CO2 time=5.0 free_energy=-1401.9802459629618 pbc="T T T"
C        0.14683323       0.01107082      -0.00067838       3.65034013      -0.26394012      -0.45399097      -0.30335122      -1.16819695      -0.32458224
O        0.02875993      -1.12386055      -0.33172793       5.67886877       0.51872535       0.32313584      -0.02813818       0.50203605       0.05987492
O        0.27298132       1.12435860       0.33105371       5.56681262       0.00639366       0.23174546      -0.18465435       0.67580378       0.22504532
C        4.28122676       0.33026646       0.23845313      -5.65370070       0.16709423      -0.13705955       0.12975004      -0.00645583      -0.09656257
C        3.21530895      -0.34920994      -0.28259133      -6.65067701      -1.34894459       0.20491727      -0.06573533       0.08988859      -0.33616089
H        4.09052663       1.21846208       0.85797866      -0.71443047       0.30197197       0.07206222       0.39114818       0.00506622       0.25135037
H        5.30838018      -0.00490906       0.07056251      -0.81175678       0.09106857       0.19400007       0.57192141       0.38671410       0.24715120
H        2.26145424       0.12716833       0.00158276      -0.62076290       0.40360439       0.04915803      -0.07377264      -0.07275751      -0.07341094
H        3.37105482      -1.04638149      -1.10041725      -0.44469366       0.12402654      -0.48396837      -0.43716791      -0.41209847       0.04729484
9
Lattice="13.0 0.0 0.0 0.0 9.0 0.0 0.0 0.0 9.0" Properties=species:S:1:pos:R:3:momenta:R:3:forces:R:3 EPS_SCF=1e-06 energy=-1402.0088159147913 units=gap_units Integrated_spin_density=6.55109e-05 opt_dir=/home/tks32/dft_pbe/apr_8_opt_fragments_subset/singlepoint_1_CO2 time=5.0 free_energy=-1402.0088159147913 pbc="T T T"
C        0.14284855       0.00584645      -0.00059841       3.65034013      -0.26394012      -0.45399097      -0.14989887       0.08201720       0.01264479
O        0.02706003      -1.12255857      -0.33333921       5.67886877       0.51872535       0.32313584      -0.06612420       0.05838308      -0.05509098
O        0.26790984       1.12870286       0.33195690       5.56681262       0.00639366       0.23174546      -0.23567923      -0.13624364       0.00320706
C        4.28243562       0.32926449       0.23641518      -5.65370070       0.16709423      -0.13705955       0.19259149       0.01298542      -0.08042870
C        3.21617583      -0.34481737      -0.28900140      -6.65067701      -1.34894459       0.20491727      -0.06975161       0.01940667      -0.31340433
H        4.10203919       1.21434894       0.85979528      -0.71443047       0.30197197       0.07206222       0.25924816       0.06605574       0.27610813
H        5.31462287       0.00568443       0.07758607      -0.81175678       0.09106857       0.19400007       0.56302971       0.30379703       0.17975722
H        2.26058395       0.12380096      -0.00011924      -0.62076290       0.40360439       0.04915803      -0.08402489      -0.01830199      -0.05965082
H        3.36285017      -1.05330695      -1.09847928      -0.44469366       0.12402654      -0.48396837      -0.40939056      -0.38809951       0.03685763
9
Lattice="13.0 0.0 0.0 0.0 9.0 0.0 0.0 0.0 9.0" Properties=species:S:1:pos:R:3:momenta:R:3:forces:R:3 EPS_SCF=1e-06 energy=-1402.0282676716604 units=gap_units Integrated_spin_density=6.55109e-05 opt_dir=/home/tks32/dft_pbe/apr_8_opt_fragments_subset/singlepoint_1_CO2 time=5.0 free_energy=-1402.0282676716604 pbc="T T T"
C        0.13815794       0.00103472      -0.00045798       3.65034013      -0.26394012      -0.45399097      -0.00924193       1.21418608       0.31582965
O        0.02504851      -1.12098076      -0.33520942       5.67886877       0.51872535       0.32313584      -0.10312102      -0.39200041      -0.17561632