9
Lattice="13.0 0.0 0.0 0.0 9.0 0.0 0.0 0.0 9.0" Properties=species:S:1:pos:R:3:momenta:R:3:forces:R:3 EPS_SCF=1e-06 energy=-1397.8795280560553 units=gap_units Integrated_spin_density=6.55109e-05 opt_dir=/home/tks32/dft_pbe/apr_8_opt_fragments_subset/singlepoint_1_CO2 time=40.0 free_energy=-1397.8795280560553 pbc="T T T"
C        0.26519891      -0.02019536       0.01597110      -1.84174930       0.08776242       0.23709142       1.26267723       0.40144040       0.11542673
O        0.33484296      -1.15691250      -0.29335691      -4.07885110      -0.26193226       0.48889950      -1.42519119       0.60262049       0.51853945
O        0.97791241       1.03953491       0.32776596       1.64979813      -1.41445752      -0.12201983      -1.50879733      -2.11149866      -0.71569700
C        3.48980544       0.43105695       0.33384080       1.83062567       1.89343391       1.31254236      -1.17337341       3.58502065      -0.77338400
C        2.86454538      -0.43847597      -0.35258616       3.27375021      -1.21804969      -1.67947940      -1.04435349      -0.25573548      -1.68735241
H        3.28475663       1.60582692       0.28546764       0.15074160       0.02871487      -0.02275512      -0.47062148      -2.06146407      -0.10950608
H        4.47127175       0.44282439       0.79232870      -0.29226259       0.19844652       0.08316324       1.14761711      -1.30989048       0.31416665
H        1.70653507       0.81500430      -0.35743555      -0.63318020       0.17845348      -0.42574139       1.09131755       1.44258417       0.79950163
H        2.15034844      -0.67159161      -1.23344486      -0.05887241       0.50762827       0.12829921       2.12072502      -0.29307702       1.53830504
9
Lattice="13.0 0.0 0.0 0.0 9.0 0.0 0.0 0.0 9.0" Properties=species:S:1:pos:R:3:momenta:R:3:forces:R:3 EPS_SCF=1e-06 energy=-1398.267198860293 units=gap_units Integrated_spin_density=6.55109e-05 opt_dir=/home/tks32/dft_pbe/apr_8_opt_fragments_subset/singlepoint_1_CO2 time=40.0 free_energy=-1398.267198860293 pbc="T T T"
C        0.27782568      -0.01618096       0.01712537      -1.84174930       0.08776242       0.23709142       0.64796304      -0.28967741      -0.06794687
O        0.32059105      -1.15088630      -0.28817152      -4.07885110      -0.26193226       0.48889950      -1.43110507       0.08926470       0.31624993
O        0.96282444       1.01841992       0.32060899       1.64979813      -1.41445752      -0.12201983      -0.95512561      -0.73075059      -0.12948453
C        3.47807171       0.46690716       0.32610696       1.83062567       1.89343391       1.31254236       0.04961577       2.32031140      -0.23062068
C        2.85410185      -0.44103332      -0.36945968       3.27375021      -1.21804969      -1.67947940      -0.41314519       0.08698402      -0.76253362
H        3.28005042       1.58521228       0.28437258       0.15074160       0.02871487      -0.02275512      -0.72152814      -1.14312995      -0.16843313
H        4.48274792       0.42972549       0.79547037      -0.29226259       0.19844652       0.08316324       0.11452737      -1.11854375      -0.18384699
H        1.71744825       0.82943014      -0.34944053      -0.63318020       0.17845348      -0.42574139       1.35537788       1.14225806       0.47718829
H        2.17155569      -0.67452238      -1.21806181      -0.05887241       0.50762827       0.12829921       1.35341995      -0.35671648       0.74942762
9
Lattice="13.0 0.0 0.0 0.0 9.0 0.0 0.0 0.0 9.0" Properties=species:S:1:pos:R:3:momenta:R:3:forces:R:3 EPS_SCF=1e-06 energy=-1398.4517671561057 units=gap_units Integrated_spin_density=6.55109e-05 opt_dir=/home/tks32/dft_pbe/apr_8_opt_fragments_subset/singlepoint_1_CO2 time=40.0 free_energy=-1398.4517671561057 pbc="T T T"
C        0.29669982      -0.01592542       0.01737669      -1.84174930       0.08776242       0.23709142      -0.49740060      -1.53368481      -0.42238356
O        0.29117748      -1.14442811      -0.27983925      -4.07885110      -0.26193226       0.48889950      -1.45896228      -0.82032542      -0.02305760
O        0.93817513       0.99094686       0.31266696       1.64979813      -1.41445752      -0.12201983       0.47608345       1.61128729       0.53236823
C        3.46808640       0.52606530       0.31647356       1.83062567       1.89343391       1.31254236       1.45400820      -1.39488722       0.06039411
C        2.83991421      -0.44232678      -0.39348380       3.27375021      -1.21804969      -1.67947940       1.10262479       1.21304605       1.39299487
H        3.26745214       1.55340996       0.28143484       0.15074160       0.02871487      -0.02275512      -1.23664421       1.42349649      -0.23894499
H        4.49440387       0.40497228       0.79616704      -0.29226259       0.19844652       0.08316324      -1.05463059      -0.59685566      -0.72602964
H        1.74297925       0.85565244      -0.33671429      -0.63318020       0.17845348      -0.42574139       1.34225854       0.63770467       0.28574959
H        2.20632867      -0.68129450      -1.19553102      -0.05887241       0.50762827       0.12829921      -0.12733729      -0.53978139      -0.86109100
9
Lattice="13.0 0.0 0.0 0.0 9.0 0.0 0.0 0.0 9.0" Properties=species:S:1:pos:R:3:momenta:R:3:forces:R:3 EPS_SCF=1e-06 energy=-1398.510443467939 units=gap_units Integrated_spin_density=6.55109e-05 opt_dir=/home/tks32/dft_pbe/apr_8_opt_fragments_subset/singlepoint_1_CO2 time=40.0 free_energy=-1398.510443467939 pbc="T T T"
C        0.29545632      -0.01975963       0.01632073      -1.84174930       0.08776242       0.23709142      -0.19592212      -0.87998039      -0.25064536
O        0.28753008      -1.14647893      -0.27989689      -4.07885110      -0.26193226       0.48889950      -1.43768520      -0.90610132      -0.04025935
O        0.93936534       0.99497508       0.31399788       1.64979813      -1.41445752      -0.12201983       0.27931290       1.05716852       0.29299811
C        3.47172142       0.52257808       0.31662454       1.83062567       1.89343391       1.31254236       1.29820625      -0.84625437       0.08028370
C        2.84267078      -0.43929416      -0.39000131       3.27375021      -1.21804969      -1.67947940       0.82931750       0.96118363       1.04438007
H        3.26436053       1.55696870       0.28083748       0.15074160       0.02871487      -0.02275512      -1.13359983       1.10410632      -0.20333727
H        4.49176730       0.40348015       0.79435196      -0.29226259       0.19844652       0.08316324      -0.85006472      -0.61221000      -0.62491759
H        1.74633490       0.85724670      -0.33599992      -0.63318020       0.17845348      -0.42574139       1.16270807       0.62978022       0.38055586
H        2.20601033      -0.68264395      -1.19768375      -0.05887241       0.50762827       0.12829921       0.04772714      -0.50769260      -0.67905817
9
Lattice="13.0 0.0 0.0 0.0 9.0 0.0 0.0 0.0 9.0" Properties=species:S:1:pos:R:3:momenta:R:3:forces:R:3 EPS_SCF=1e-06 energy=-1398.5852299006717 units=gap_units Integrated_spin_density=6.55109e-05 opt_dir=/home/tks32/dft_pbe/apr_8_opt_fragments_subset/singlepoint_1_CO2 time=40.0 free_energy=-1398.5852299006717 pbc="T T T"
C        0.29378606      -0.02568572       0.01466533      -1.84174930       0.08776242       0.23709142       0.23886012      -0.00112567      -0.02278074
O        0.28020334      -1.15087343      -0.28006202      -4.07885110      -0.26193226       0.48889950      -1.40453012      -0.92565901      -0.03631782
O        0.94122221       1.00157419       0.31601988       1.64979813      -1.41445752      -0.12201983       0.00643444       0.22459244      -0.07004722
C        3.47864467       0.51705916       0.31698626       1.83062567       1.89343391       1.31254236       0.94147631       0.00037083       0.03968755
C        2.84748447      -0.43386110      -0.38392934       3.27375021      -1.21804969      -1.67947940       0.41908655       0.60389614       0.51319911
H        3.25838938       1.56327731       0.27972789       0.15074160       0.02871487      -0.02275512      -0.94913600       0.57411452      -0.13940880
H        4.48700323       0.40041513       0.79096056      -0.29226259       0.19844652       0.08316324      -0.46079402      -0.63407823      -0.43271772
H        1.75262556       0.86045305      -0.33428652      -0.63318020       0.17845348      -0.42574139       0.87092893       0.60512028       0.52636799
H        2.20585807      -0.68528655      -1.20153133      -0.05887241       0.50762827       0.12829921       0.33767379      -0.44723130      -0.37798235
9
Lattice="13.0 0.0 0.0 0.0 9.0 0.0 0.0 0.0 9.0" Properties=species:S:1:pos:R:3:momenta:R:3:forces:R:3 EPS_SCF=1e-06 energy=-1398.6423107572039 units=gap_units Integrated_spin_density=6.55109e-05 opt_dir=/home/tks32/dft_pbe/apr_8_opt_fragments_subset/singlepoint_1_CO2 time=40.0 free_energy=-1398.6423107572039 pbc="T T T"
C        0.29306768      -0.03102290       0.01310061      -1.84174930       0.08776242       0.23709142       0.59206718       0.51632513       0.10531072
O        0.26899425      -1.15787004      -0.28032996      -4.07885110      -0.26193226       0.48889950      -1.37276276      -0.65445779       0.04395424
O        0.94291453       1.00825136       0.31760952       1.64979813      -1.41445752      -0.12201983      -0.20983543      -0.52421911      -0.39328229
C        3.48796911       0.51209334       0.31744221       1.83062567       1.89343391       1.31254236       0.39585587       0.82212901      -0.11829534
C        2.85319384      -0.42698704      -0.37677828       3.27375021      -1.21804969      -1.67947940       0.04132461       0.29861888       0.00539695
H        3.24989665       1.57084149       0.27827118       0.15074160       0.02871487      -0.02275512      -0.72326597       0.00373505      -0.05993572
H        4.48120148       0.39557316       0.78648647      -0.29226259       0.19844652       0.08316324       0.05250933      -0.64569716      -0.17911485
H        1.76114888       0.86532707      -0.33101490      -0.63318020       0.17845348      -0.42574139       0.57456138       0.54905961       0.65101970
H        2.20683058      -0.68913441      -1.20623613      -0.05887241       0.50762827       0.12829921       0.64954579      -0.36549362      -0.05505342
9
Lattice="13.0 0.0 0.0 0.0 9.0 0.0 0.0 0.0 9.0" Properties=species:S:1:pos:R:3:momenta:R:3:forces:R:3 EPS_SCF=1e-06 energy=-1398.6844120977003 units=gap_units Integrated_spin_density=6.55109e-05 opt_dir=/home/tks32/dft_pbe/apr_8_opt_fragments_subset/singlepoint_1_CO2 time=40.0 free_energy=-1398.6844120977003 pbc="T T T"
C        0.29455719      -0.03396356       0.01207230      -1.84174930       0.08776242       0.23709142       0.72918576       0.39396249       0.06365579
O        0.25395341      -1.16652813      -0.28041254      -4.07885110      -0.26193226       0.48889950      -1.34758627      -0.05405687       0.20470874
O        0.94368057       1.01236953       0.31762132       1.64979813      -1.41445752      -0.12201983      -0.31656535      -0.94884514      -0.55528317
C        3.49778928       0.51059018       0.31742578       1.83062567       1.89343391       1.31254236      -0.16720789       1.38906987      -0.33463338
C        2.85848136      -0.41972303      -0.37032285       3.27375021      -1.21804969      -1.67947940      -0.20291998       0.10577341      -0.35063184
H        3.23964379       1.57766274       0.27674391       0.15074160       0.02871487      -0.02275512      -0.51231594      -0.43889867       0.01719792
H        4.47616936       0.38888583       0.78181358      -0.29226259       0.19844652       0.08316324       0.55157009      -0.62632621       0.06956612
H        1.77089276       0.87169460      -0.32572170      -0.63318020       0.17845348      -0.42574139       0.37298642       0.45455757       0.68951049
H        2.21004926      -0.69391611      -1.21066907      -0.05887241       0.50762827       0.12829921       0.89285315      -0.27523645       0.19590934
9
Lattice="13.0 0.0 0.0 0.0 9.0 0.0 0.0 0.0 9.0" Properties=species:S:1:pos:R:3:momenta:R:3:forces:R:3 EPS_SCF=1e-06 energy=-1398.732714184705 units=gap_units Integrated_spin_density=6.55109e-05 opt_dir=/home/tks32/dft_pbe/apr_8_opt_fragments_subset/singlepoint_1_CO2 time=40.0 free_energy=-1398.732714184705 pbc="T T T"
C        0.29849494      -0.03520696       0.01137356      -1.84174930       0.08776242       0.23709142       0.64890260      -0.11127220      -0.07530342
O        0.23561688      -1.17451296      -0.27975773      -4.07885110      -0.26193226       0.48889950      -1.32189998       0.59468929       0.36755777
O        0.94324249       1.01269632       0.31565414       1.64979813      -1.41445752      -0.12201983      -0.33076228      -1.02529682      -0.54099940
C        3.50603187       0.51418488       0.31621911       1.83062567       1.89343391       1.31254236      -0.51439838       1.63265477      -0.48625989
C        2.86251738      -0.41280869      -0.36576184       3.27375021      -1.21804969      -1.67947940      -0.31025591       0.00110820      -0.53797348
H        3.22859147       1.58223860       0.27543062       0.15074160       0.02871487      -0.02275512      -0.36477412      -0.67137075       0.07650393
H        4.47360500       0.38063641       0.77785575      -0.29226259       0.19844652       0.08316324       0.87443605      -0.56021632       0.23620591
H        1.78099075       0.87904439      -0.31850195      -0.63318020       0.17845348      -0.42574139       0.29514941       0.33141878       0.63017625
H        2.21612621      -0.69919997      -1.21396094      -0.05887241       0.50762827       0.12829921       1.02360261      -0.19171494       0.33009234
9
Lattice="13.0 0.0 0.0 0.0 9.0 0.0 0.0 0.0 9.0" Properties=species:S:1:pos:R:3:momenta:R:3:forces:R:3 EPS_SCF=1e-06 energy=-1398.803559735816 units=gap_units Integrated_spin_density=6.55109e-05 opt_dir=/home/tks32/dft_pbe/apr_8_opt_fragments_subset/singlepoint_1_CO2 time=40.0 free_energy=-1398.803559735816 pbc="T T T"
C        0.30430688      -0.03671492       0.01048149      -1.84174930       0.08776242       0.23709142       0.42339267      -0.59078980      -0.20258362
O        0.21449385      -1.17962082      -0.27788376      -4.07885110      -0.26193226       0.48889950      -1.29554199       0.96564513       0.44695340
O        0.94169217       1.00940694       0.31199285       1.64979813      -1.41445752      -0.12201983      -0.27898529      -0.83751648      -0.40032069
C        3.51165235       0.52312636       0.31343359       1.83062567       1.89343391       1.31254236      -0.50314658       1.54951065      -0.49570728
C        2.86506542      -0.40658190      -0.36353719       3.27375021      -1.21804969      -1.67947940      -0.30942003      -0.04151328      -0.57696965
H        3.21736947       1.58401039       0.27451605       0.15074160       0.02871487      -0.02275512      -0.30844090      -0.67473210       0.11077837
H        4.47435330       0.37125393       0.77511927      -0.29226259       0.19844652       0.08316324       0.92436858      -0.43820784       0.27470427
H        1.79111051       0.88681754      -0.30980166      -0.63318020       0.17845348      -0.42574139       0.31128627       0.19557607       0.50173312
H        2.22517303      -0.70462550      -1.21576992      -0.05887241       0.50762827       0.12829921       1.03648726      -0.12797234       0.34141208
9
Lattice="13.0 0.0 0.0 0.0 9.0 0.0 0.0 0.0 9.0" Properties=species:S:1:pos:R:3:momenta:R:3:forces:R:3 EPS_SCF=1e-06 energy=-1398.8946133210832 units=gap_units Integrated_spin_density=6.55109e-05 opt_dir=/home/tks32/dft_pbe/apr_8_opt_fragments_subset/singlepoint_1_CO2 time=40.0 free_energy=-1398.8946133210832 pbc="T T T"
C        0.31105573      -0.04019040       0.00895226      -1.84174930       0.08776242       0.23709142       0.16047449      -0.73714963      -0.23923152
O        0.19083789      -1.18075551      -0.27459461      -4.07885110      -0.26193226       0.48889950      -1.28680952       0.87433577       0.39895427
O        0.93929656       1.00344354       0.30726232       1.64979813      -1.41445752      -0.12201983      -0.18839372      -0.51278490      -0.20669682
C        3.51490671       0.53672955       0.30914923       1.83062567       1.89343391       1.31254236      -0.14132321       1.14386988      -0.37247832
C        2.86624922      -0.40112664      -0.36360375       3.27375021      -1.21804969      -1.67947940      -0.21484720      -0.01644477      -0.47441492
H        3.20616374       1.58318570       0.27409013       0.15074160       0.02871487      -0.02275512      -0.31268245      -0.44203262       0.13716020
H        4.47834115       0.36123849       0.77364140      -0.29226259       0.19844652       0.08316324       0.71016896      -0.25689776       0.18901200
H        1.80133442       0.89451463      -0.30017240      -0.63318020       0.17845348      -0.42574139       0.33193256       0.04121467       0.33149595
H        2.23703156      -0.70996733      -1.21617386      -0.05887241       0.50762827       0.12829921       0.94148009      -0.09411064       0.23619916
9
Lattice="13.0 0.0 0.0 0.0 9.0 0.0 0.0 0.0 9.0" Properties=species:S:1:pos:R:3:momenta:R:3:forces:R:3 EPS_SCF=1e-06 energy=-1398.991954940562 units=gap_units Integrated_spin_density=6.55109e-05 opt_dir=/home/tks32/dft_pbe/apr_8_opt_fragments_subset/singlepoint_1_CO2 time=40.0 free_energy=-1398.991954940562 pbc="T T T"
C        0.31848340      -0.04705936       0.00632573      -1.84174930       0.08776242       0.23709142      -0.04745988      -0.36396722      -0.13946149
O        0.16143395      -1.17781261      -0.26948295      -4.07885110      -0.26193226       0.48889950      -1.33147990       0.24058839       0.20830193
O        0.93604875       0.99515498       0.30161781       1.64979813      -1.41445752      -0.12201983      -0.07727251      -0.15476758      -0.01371394
C        3.51747129       0.55551649       0.30317544       1.83062567       1.89343391       1.31254236       0.49423484       0.36217586      -0.18076909
C        2.86642200      -0.39580242      -0.36587601       3.27375021      -1.21804969      -1.67947940       0.00099045       0.12899366      -0.18682448
H        3.19361588       1.58031352       0.27430636       0.15074160       0.02871487      -0.02275512      -0.35501940       0.03734448       0.17383040
H        4.48559189       0.35012844       0.77305734      -0.29226259       0.19844652       0.08316324       0.28884751      -0.00064585       0.00726948
H        1.81299981       0.90232642      -0.28909776      -0.63318020       0.17845348      -0.42574139       0.28963420      -0.15244852       0.13278103
H        2.25315002      -0.71569342      -1.21547526      -0.05887241       0.50762827       0.12829921       0.73752469      -0.09727323      -0.00141383
9
Lattice="13.0 0.0 0.0 0.0 9.0 0.0 0.0 0.0 9.0" Properties=species:S:1:pos:R:3:momenta:R:3:forces:R:3 EPS_SCF=1e-06 energy=-1399.0673732128853 units=gap_units Integrated_spin_density=6.55109e-05 opt_dir=/home/tks32/dft_pbe/apr_8_opt_fragments_subset/singlepoint_1_CO2 time=40.0 free_energy=-1399.0673732128853 pbc="T T T"
C        0.32553177      -0.05626907       0.00280225      -1.84174930       0.08776242       0.23709142      -0.15395454       0.27701843       0.03253212
O        0.12350509      -1.17330822      -0.26304216      -4.07885110      -0.26193226       0.48889950      -1.41663859      -0.56478071      -0.02273319
O        0.93231992       0.98591885       0.29593303       1.64979813      -1.41445752      -0.12201983       0.03894135       0.11070390       0.11617539
C        3.52327456       0.57652626       0.29606190       1.83062567       1.89343391       1.31254236       1.07130612      -0.58173692      -0.07427520
C        2.86659977      -0.38967433      -0.36936092       3.27375021      -1.21804969      -1.67947940       0.32684954       0.43678734       0.28060972
H        3.17883688       1.57771333       0.27566780       0.15074160       0.02871487      -0.02275512      -0.35588332       0.57443351       0.24371841
H        4.49468424       0.33911302       0.77252646      -0.29226259       0.19844652       0.08316324      -0.11775217       0.28018754      -0.16933873
H        1.82647272       0.90906265      -0.27724543      -0.63318020       0.17845348      -0.42574139       0.13177373      -0.39249172      -0.06567515
H        2.27399205      -0.72201047      -1.21479221      -0.05887241       0.50762827       0.12829921       0.47535788      -0.14012138      -0.34101337
9
Lattice="13.0 0.0 0.0 0.0 9.0 0.0 0.0 0.0 9.0" Properties=species:S:1:pos:R:3:momenta:R:3:forces:R:3 EPS_SCF=1e-06 energy=-1399.1450419609248 units=gap_units Integrated_spin_density=6.55109e-05 opt_dir=/home/tks32/dft_pbe/apr_8_opt_fragments_subset/singlepoint_1_CO2 time=40.0 free_energy=-1399.1450419609248 pbc="T T T"
C        0.33141688      -0.06341277      -0.00045953      -1.84174930       0.08776242       0.23709142      -0.37964072       0.14781110       0.02631043
O        0.07567512      -1.17290447      -0.25681532      -4.07885110      -0.26193226       0.48889950      -1.30664169      -0.49693067      -0.04159269
O        0.92890052       0.97755174       0.29112893       1.64979813      -1.41445752      -0.12201983       0.16346736       0.28823273       0.19391956
C        3.53674407       0.59318442       0.28846927       1.83062567       1.89343391       1.31254236       1.17616994      -0.98978375      -0.09890206
C        2.86912892      -0.38044998      -0.37079870       3.27375021      -1.21804969      -1.67947940       0.52936391       0.68891276       0.62387049
H        3.16161156       1.57926840       0.27877296       0.15074160       0.02871487      -0.02275512      -0.16360311       0.72405413       0.35264237
H        4.50285796       0.33020051       0.77078077      -0.29226259       0.19844652       0.08316324      -0.22427095       0.47342411      -0.21422186
H        1.84078893       0.91292101      -0.26595844      -0.63318020       0.17845348      -0.42574139      -0.10775386      -0.65549764      -0.25060651
H        2.29809305      -0.72928681      -1.21656922      -0.05887241       0.50762827       0.12829921       0.31290913      -0.18022278      -0.59141972
9
Lattice="13.0 0.0 0.0 0.0 9.0 0.0 0.0 0.0 9.0" Properties=species:S:1:pos:R:3:momenta:R:3:forces:R:3 EPS_SCF=1e-06 energy=-1399.2471688865317 units=gap_units Integrated_spin_density=6.55109e-05 opt_dir=/home/tks32/dft_pbe/apr_8_opt_fragments_subset/singlepoint_1_CO2 time=40.0 free_energy=-1399.2471688865317 pbc="T T T"
C        0.33424390      -0.06933316      -0.00349016      -1.84174930       0.08776242       0.23709142      -0.70422822      -0.54089444      -0.09081386
O        0.01777828      -1.17645445      -0.25096111      -4.07885110      -0.26193226       0.48889950      -0.81773224       0.45891334       0.13001160
O        0.92680385       0.97153266       0.28789899       1.64979813      -1.41445752      -0.12201983       0.15872900       0.18840351       0.17602343
C        3.55947444       0.60186081       0.28014141       1.83062567       1.89343391       1.31254236       0.67348333      -0.37448903      -0.11843086
C        2.87584992      -0.36581031      -0.36726651       3.27375021      -1.21804969      -1.67947940       0.34187971       0.54650611       0.44993947
H        3.14320143       1.58656983       0.28466102       0.15074160       0.02871487      -0.02275512       0.28089811       0.26296847       0.45575158
H        4.50919350       0.32511212       0.76734359      -0.29226259       0.19844652       0.08316324       0.07763912       0.50368058      -0.08102026
H        1.85415202       0.91154162      -0.25673997      -0.63318020       0.17845348      -0.42574139      -0.36147962      -0.89393899      -0.39741408
H        2.32451967      -0.73794708      -1.22303654      -0.05887241       0.50762827       0.12829921       0.35081081      -0.15114956      -0.52404702
9
Lattice="13.0 0.0 0.0 0.0 9.0 0.0 0.0 0.0 9.0" Properties=species:S:1:pos:R:3:momenta:R:3:forces:R:3 EPS_SCF=1e-06 energy=-1399.3270987829562 units=gap_units Integrated_spin_density=6.55109e-05 opt_dir=/home/tks32/dft_pbe/apr_8_opt_fragments_subset/singlepoint_1_CO2 time=40.0 free_energy=-1399.3270987829562 pbc="T T T"
C        0.32994182      -0.08068332      -0.00742089      -1.84174930       0.08776242       0.23709142      -0.54525671      -0.09581677       0.08237647
O       -0.04805007      -1.17534906      -0.24382688      -4.07885110      -0.26193226       0.48889950      -0.24026380       0.95171509       0.16913264
O        0.92632230       0.96745065       0.28646528       1.64979813      -1.41445752      -0.12201983      -0.18861198      -0.51781579      -0.03951978
C        3.58887856       0.60670550       0.27066451       1.83062567       1.89343391       1.31254236      -0.23674844       0.70083176      -0.09566645
C        2.88598601      -0.34573358      -0.35920970       3.27375021      -1.21804969      -1.67947940      -0.13781489       0.09762487      -0.17998099
H        3.12773283       1.59648602       0.29511905       0.15074160       0.02871487      -0.02275512       0.78480373      -0.44800876       0.48716632
H        4.51627734       0.32514000       0.76310754      -0.29226259       0.19844652       0.08316324       0.62956272       0.40227607       0.15949965
H        1.86378826       0.90114080      -0.25158783      -0.63318020       0.17845348      -0.42574139      -0.57336728      -1.06751060      -0.47324718
H        2.35433994      -0.74808497      -1.23476037      -0.05887241       0.50762827       0.12829921       0.50769665      -0.02329587      -0.10976069
9
Lattice="13.0 0.0 0.0 0.0 9.0 0.0 0.0 0.0 9.0" Properties=species:S:1:pos:R:3:momenta:R:3:forces:R:3 EPS_SCF=1e-06 energy=-1399.3984342054912 units=gap_units Integrated_spin_density=6.55109e-05 opt_dir=/home/tks32/dft_pbe/apr_8_opt_fragments_subset/singlepoint_1_CO2 time=40.0 free_energy=-1399.3984342054912 pbc="T T T"
C        0.31926980      -0.09310403      -0.01036814      -1.84174930       0.08776242       0.23709142      -0.19443592       0.86978854       0.36190816
O       -0.11639064      -1.16309575      -0.23474349      -4.07885110      -0.26193226       0.48889950       0.02459168       0.57931317      -0.00456587
O        0.92363266       0.95731925       0.28457506       1.64979813      -1.41445752      -0.12201983      -0.46844566      -0.92603782      -0.15276491
C        3.61537273       0.61974081       0.26011019       1.83062567       1.89343391       1.31254236      -0.58786521       1.03063024       0.05594685
C        2.89446035      -0.32460534      -0.35329919       3.27375021      -1.21804969      -1.67947940      -0.50917475      -0.17825150      -0.67581330
H        3.12153252       1.60110635       0.31123790       0.15074160       0.02871487      -0.02275512       0.90188908      -0.70404713       0.42563667
H        4.53070628       0.32988197       0.76076017      -0.29226259       0.19844652       0.08316324       0.82059840       0.37596163       0.20923744
H        1.86666089       0.87827791      -0.25200534      -0.63318020       0.17845348      -0.42574139      -0.53380550      -1.16145239      -0.52410966
H        2.38997240      -0.75844915      -1.24771643      -0.05887241       0.50762827       0.12829921       0.54664788       0.11409527       0.30452462
9
Lattice="13.0 0.0 0.0 0.0 9.0 0.0 0.0 0.0 9.0" Properties=species:S:1:pos:R:3:momenta:R:3:forces:R:3 EPS_SCF=1e-06 energy=-1399.5221587364454 units=gap_units Integrated_spin_density=6.55109e-05 opt_dir=/home/tks32/dft_pbe/apr_8_opt_fragments_subset/singlepoint_1_CO2 time=40.0 free_energy=-1399.5221587364454 pbc="T T T"
C        0.30614350      -0.09433145      -0.00866592      -1.84174930       0.08776242       0.23709142      -0.74577582       0.10359822       0.20931826
O       -0.18417250      -1.14346041      -0.22575098      -4.07885110      -0.26193226       0.48889950       0.30494250       0.55202344      -0.07810861
O        0.91494801       0.93535390       0.28073341       1.64979813      -1.41445752      -0.12201983      -0.13678091       0.01431312       0.17664557
C        3.63423720       0.64594040       0.25031060       1.83062567       1.89343391       1.31254236      -0.14654347       0.06747467       0.26301707
C        2.89637784      -0.30583721      -0.35607239       3.27375021      -1.21804969      -1.67947940      -0.44835063       0.07500115      -0.59949336
H        3.12691481       1.59668568       0.33275519       0.15074160       0.02871487      -0.02275512       0.42765778      -0.26705628       0.33365790
H        4.55560234       0.33942615       0.76110318      -0.29226259       0.19844652       0.08316324       0.40022846       0.52707488      -0.07091257
H        1.86268090       0.84060887      -0.25913945      -0.63318020       0.17845348      -0.42574139      -0.09099115      -1.19899267      -0.58748751
H        2.43248489      -0.76731391      -1.25672291      -0.05887241       0.50762827       0.12829921       0.43561324       0.12656347       0.35336325
9
Lattice="13.0 0.0 0.0 0.0 9.0 0.0 0.0 0.0 9.0" Properties=species:S:1:pos:R:3:momenta:R:3:forces:R:3 EPS_SCF=1e-06 energy=-1399.6345909175361 units=gap_units Integrated_spin_density=6.55109e-05 opt_dir=/home/tks32/dft_pbe/apr_8_opt_fragments_subset/singlepoint_1_CO2 time=40.0 free_energy=-1399.6345909175361 pbc="T T T"
C        0.28060363      -0.09382675      -0.00347455      -1.84174930       0.08776242       0.23709142      -0.71707723       0.33882108       0.24280292
O       -0.24669368      -1.11466160      -0.21808481      -4.07885110      -0.26193226       0.48889950      -0.00989537      -0.35913678      -0.27505654