9
Lattice="13.0 0.0 0.0 0.0 9.0 0.0 0.0 0.0 9.0" Properties=species:S:1:pos:R:3:momenta:R:3:forces:R:3 EPS_SCF=1e-06 energy=-1400.906712200895 units=gap_units Integrated_spin_density=6.55109e-05 opt_dir=/home/tks32/dft_pbe/apr_8_opt_fragments_subset/singlepoint_1_CO2 time=0.0 free_energy=-1400.906712200895 pbc="T T T"
C       -0.38143350      -0.01836186       0.06372657       5.45409721       0.81308744      -0.21939016       0.14686419       0.21098203      -0.05930562
O       -0.99029535      -0.98867703      -0.18785450       6.91856637       1.60105312       0.69227000       0.06908801      -0.22319343      -0.01578731
O        0.20244631       0.96828318       0.31967203       6.44529771      -2.41414056      -0.47287984       0.01454680       0.42339485      -0.13513035
C        4.65451128       0.39052095       0.27903735      -5.69597901       0.88593916       0.41407752      -0.00511966      -0.10105445       0.00096373
C        3.74223705      -0.38655210      -0.34653807      -6.07650281      -1.32504139       0.17494715      -0.08450445      -0.06942861       0.00283082
H        4.37777385       1.19250066       0.96914125      -0.67682574      -0.05175688      -0.30347750      -0.22342528      -0.27766757       0.03328806
H        5.72768701       0.22187875       0.15400963      -0.20088037      -0.43346916      -0.14053191      -0.02820399       0.13944606      -0.03317981
H        2.69957083      -0.15357331      -0.25243978      -0.11295227       0.37406457       0.09108301       0.13102592      -0.00589489       0.17951255
H        3.96751533      -1.22600982      -0.99877538      -0.29107960       0.55026370      -0.23609827      -0.02027154      -0.09658398       0.02680795
9
Lattice="13.0 0.0 0.0 0.0 9.0 0.0 0.0 0.0 9.0" Properties=species:S:1:pos:R:3:momenta:R:3:forces:R:3 EPS_SCF=1e-06 energy=-1400.906712200895 units=gap_units Integrated_spin_density=6.55109e-05 opt_dir=/home/tks32/dft_pbe/apr_8_opt_fragments_subset/singlepoint_1_CO2 time=5.0 free_energy=-1400.906712200895 pbc="T T T"
C        0.12697817      -0.00885755      -0.02588448       3.65034013      -0.26394012      -0.45399097       0.14686419       0.21098203      -0.05930562
O        0.05426916      -1.12372141      -0.41818307       5.67886877       0.51872535       0.32313584       0.06908801      -0.22319343      -0.01578731
O        0.20375470       1.09657201       0.36672504       5.56681262       0.00639366       0.23174546       0.01454680       0.42339485      -0.13513035
C        4.35705498       0.31244966       0.20352911      -5.65370070       0.16709423      -0.13705955      -0.00511966      -0.10105445       0.00096373
C        3.24430894      -0.31915402      -0.30353594      -6.65067701      -1.34894459       0.20491727      -0.08450445      -0.06942861       0.00283082
H        4.09708262       1.12644895       0.89272908      -0.71443047       0.30197197       0.07206222      -0.22342528      -0.27766757       0.03328806
H        5.44004528       0.12809972       0.06641294      -0.81175678       0.09106857       0.19400007      -0.02820399       0.13944606      -0.03317981
H        2.32874079       0.24538441      -0.01566818      -0.62076290       0.40360439       0.04915803       0.13102592      -0.00589489       0.17951255
H        3.12429141      -1.17025651      -0.98190862      -0.44469366       0.12402654      -0.48396837      -0.02027154      -0.09658398       0.02680795
9
Lattice="13.0 0.0 0.0 0.0 9.0 0.0 0.0 0.0 9.0" Properties=species:S:1:pos:R:3:momenta:R:3:forces:R:3 EPS_SCF=1e-06 energy=-1400.906712200895 units=gap_units Integrated_spin_density=6.55109e-05 opt_dir=/home/tks32/dft_pbe/apr_8_opt_fragments_subset/singlepoint_1_CO2 time=10.0 free_energy=-1400.906712200895 pbc="T T T"
C        0.07545665       0.03563787      -0.02231078       2.77249412       0.08529656       0.01220406       0.14686419       0.21098203      -0.05930562
O        0.24136822      -1.05810548      -0.42634912       4.91895693      -2.08326526      -0.62353781       0.06908801      -0.22319343      -0.01578731
O       -0.03457633       1.13004176       0.38796482       4.72341975       2.39874287       0.71189124       0.01454680       0.42339485      -0.13513035
C        4.22577123       0.31499268       0.22389751      -6.44971211      -0.17985719      -0.55472098      -0.00511966      -0.10105445       0.00096373
C        3.11249547      -0.29966170      -0.30462211      -5.18922382      -0.13882339       0.30907071      -0.08450445      -0.06942861       0.00283082
H        3.97005309       1.18759151       0.83399490      -0.04554149      -0.14498976      -0.21003843      -0.22342528      -0.27766757       0.03328806
H        5.29960862       0.06269660       0.15873525      -0.05998499       0.19811584       0.40091311      -0.02820399       0.13944606      -0.03317981
H        2.15335958       0.21948820       0.00245178       0.09223828      -0.22963216      -0.17298619       0.13102592      -0.00589489       0.17951255
H        2.99921757      -1.09406993      -1.05752566      -0.76264668       0.09441248       0.12720430      -0.02027154      -0.09658398       0.02680795
9
Lattice="13.0 0.0 0.0 0.0 9.0 0.0 0.0 0.0 9.0" Properties=species:S:1:pos:R:3:momenta:R:3:forces:R:3 EPS_SCF=1e-06 energy=-1400.906712200895 units=gap_units Integrated_spin_density=6.55109e-05 opt_dir=/home/tks32/dft_pbe/apr_8_opt_fragments_subset/singlepoint_1_CO2 time=15.0 free_energy=-1400.906712200895 pbc="T T T"
C       -0.01702497      -0.00339052      -0.03433932       2.33654373       0.26232335       0.26478954       0.14686419       0.21098203      -0.05930562
O        0.06835887      -1.10914779      -0.44019116       4.37224069      -1.20824535      -0.51552897       0.06908801      -0.22319343      -0.01578731
O       -0.06268623       1.09841934       0.37617491       3.98169156       0.97857440       0.26384214       0.01454680       0.42339485      -0.13513035
C        4.16805086       0.32716612       0.24364009      -4.62233648      -0.34141760      -0.36976342      -0.00511966      -0.10105445       0.00096373
C        3.02531357      -0.23578218      -0.26665106      -3.89431749      -0.19636519      -0.11834027      -0.08450445      -0.06942861       0.00283082
H        3.94848600       1.25868081       0.77903074      -0.28084633       0.34124138      -0.06065118      -0.22342528      -0.27766757       0.03328806
H        5.22848271       0.02025289       0.21632921      -0.53069754       0.07464971       0.27919389      -0.02820399       0.13944606      -0.03317981
H        2.12913795       0.34650072       0.05953593      -0.68416416       0.40985338       0.27520441       0.13102592      -0.00589489       0.17951255
H        2.89060918      -1.12426076      -0.90212069      -0.67811398      -0.32061408      -0.01874615      -0.02027154      -0.09658398       0.02680795
9
Lattice="13.0 0.0 0.0 0.0 9.0 0.0 0.0 0.0 9.0" Properties=species:S:1:pos:R:3:momenta:R:3:forces:R:3 EPS_SCF=1e-06 energy=-1400.906712200895 units=gap_units Integrated_spin_density=6.55109e-05 opt_dir=/home/tks32/dft_pbe/apr_8_opt_fragments_subset/singlepoint_1_CO2 time=20.0 free_energy=-1400.906712200895 pbc="T T T"
C       -0.17121356      -0.04462797      -0.07947763       1.26734939      -0.79603220      -0.02023943       0.14686419       0.21098203      -0.05930562
O       -0.05082467      -1.15337986      -0.46315007       3.13083309       1.08979548       0.10967757       0.06908801      -0.22319343      -0.01578731
O       -0.24289028       1.06143086       0.31481318       3.31985021      -0.70705770      -0.06075515       0.01454680       0.42339485      -0.13513035
C        4.09509894       0.32850379       0.25444606      -3.10367432       0.80846697       0.24597333      -0.00511966      -0.10105445       0.00096373
C        2.90449298      -0.21282240      -0.16067495      -3.34852949       0.30095228      -0.36421173      -0.08450445      -0.06942861       0.00283082
H        3.96828700       1.31756090       0.70095373      -0.65284155      -0.17558439      -0.33752090      -0.22342528      -0.27766757       0.03328806
H        5.14004173      -0.03510825       0.21457755      -0.51833688      -0.42689117       0.02305422      -0.02820399       0.13944606      -0.03317981
H        2.03320087       0.40984420       0.11455462       0.23997464      -0.01191258       0.05718169       0.13102592      -0.00589489       0.17951255
H        2.74993528      -1.11734856      -0.76899036      -0.33462509      -0.08173670       0.34684041      -0.02027154      -0.09658398       0.02680795
9
Lattice="13.0 0.0 0.0 0.0 9.0 0.0 0.0 0.0 9.0" Properties=species:S:1:pos:R:3:momenta:R:3:forces:R:3 EPS_SCF=1e-06 energy=-1400.906712200895 units=gap_units Integrated_spin_density=6.55109e-05 opt_dir=/home/tks32/dft_pbe/apr_8_opt_fragments_subset/singlepoint_1_CO2 time=25.0 free_energy=-1400.906712200895 pbc="T T T"
C       -0.06847619      -0.22445962      -0.13184557      -0.31770586       0.25132962       0.34276347       0.14686419       0.21098203      -0.05930562
O       -0.16383845      -1.36463367      -0.42197449       1.00383104       1.09143062       0.28473266       0.06908801      -0.22319343      -0.01578731
O        0.02719437       0.89548576       0.19463159       2.43136289      -1.85665056      -0.39187990       0.01454680       0.42339485      -0.13513035
C        4.01137090       0.33874202       0.22104115      -2.22057090       0.13577677       0.45818050      -0.00511966      -0.10105445       0.00096373
C        2.72345707      -0.07031282      -0.09585988       0.14724081       0.00300996      -0.50332956      -0.08450445      -0.06942861       0.00283082
H        4.11912101       1.35057739       0.66965764      -0.58911413       0.24785332      -0.22211539      -0.22342528      -0.27766757       0.03328806
H        4.95175935      -0.23145517       0.26188205      -0.20926242      -0.21243014       0.02755280      -0.02820399       0.13944606      -0.03317981
H        1.99040303       0.69595554       0.03919048      -0.18343484       0.52544953       0.14742926       0.13102592      -0.00589489       0.17951255
H        2.49688313      -1.02797600      -0.60858032      -0.06234660      -0.18576911      -0.14333385      -0.02027154      -0.09658398       0.02680795
9
Lattice="13.0 0.0 0.0 0.0 9.0 0.0 0.0 0.0 9.0" Properties=species:S:1:pos:R:3:momenta:R:3:forces:R:3 EPS_SCF=1e-06 energy=-1400.906712200895 units=gap_units Integrated_spin_density=6.55109e-05 opt_dir=/home/tks32/dft_pbe/apr_8_opt_fragments_subset/singlepoint_1_CO2 time=30.0 free_energy=-1400.906712200895 pbc="T T T"
C       -0.25739886      -0.13679177       0.13011150      -2.03312722      -0.04197946       0.02194332       0.14686419       0.21098203      -0.05930562
O       -0.07756860      -1.20837144      -0.32022595      -1.62150469      -0.48791666       0.32452459       0.06908801      -0.22319343      -0.01578731
O       -0.36984224       0.95174208       0.57181667       2.13271085      -1.03215456      -0.25382116       0.01454680       0.42339485      -0.13513035
C        3.93993331       0.39644953       0.28211333      -0.83114675       0.36644608       0.78994268      -0.00511966      -0.10105445       0.00096373
C        2.84058738      -0.08417739      -0.38518109       2.42725265      -0.06778359      -0.59601751      -0.08450445      -0.06942861       0.00283082
H        3.83888343       1.39879986       0.71329297       0.01159795      -0.22727049      -0.27573882      -0.22342528      -0.27766757       0.03328806
H        4.91813532      -0.08116202       0.49392414      -0.22301018       0.60666883       0.19787840      -0.02820399       0.13944606      -0.03317981
H        2.19439237       0.70343589      -0.79299480       0.11705252       0.51433217      -0.17518715       0.13102592      -0.00589489       0.17951255
H        2.67019710      -1.13011472      -0.69050854       0.02017485       0.36965768      -0.03352437      -0.02027154      -0.09658398       0.02680795
9
Lattice="13.0 0.0 0.0 0.0 9.0 0.0 0.0 0.0 9.0" Properties=species:S:1:pos:R:3:momenta:R:3:forces:R:3 EPS_SCF=1e-06 energy=-1400.906712200895 units=gap_units Integrated_spin_density=6.55109e-05 opt_dir=/home/tks32/dft_pbe/apr_8_opt_fragments_subset/singlepoint_1_CO2 time=35.0 free_energy=-1400.906712200895 pbc="T T T"
C       -0.17193636      -0.06802651       0.19798212      -2.46152668      -0.57666801       0.26503282       0.14686419       0.21098203      -0.05930562
O       -0.36368120      -1.12380605      -0.30277757      -3.21953655      -0.59652482       0.57322067       0.06908801      -0.22319343      -0.01578731
O        0.12724941       0.96446967       0.67705017       2.02175006      -0.63704048      -0.12486502       0.01454680       0.42339485      -0.13513035
C        3.84974734       0.56592266       0.26509964       0.14812212       0.08261467       0.63770855      -0.00511966      -0.10105445       0.00096373
C        2.91477178      -0.06410208      -0.51330735       3.63768155       0.01655986      -0.60389461      -0.08450445      -0.06942861       0.00283082
H        3.60739556       1.53591636       0.74072166       0.21258278       0.50586996      -0.09648188      -0.22342528      -0.27766757       0.03328806
H        4.82110863       0.14165207       0.55779073       0.27264163       0.67115135       0.41099176      -0.02820399       0.13944606      -0.03317981
H        2.14075874       0.57289015      -0.95658755      -0.15396494       0.06210187      -0.67904047       0.13102592      -0.00589489       0.17951255
H        2.97713626      -1.11152892      -0.83121135      -0.45774997       0.47193559      -0.38267182      -0.02027154      -0.09658398       0.02680795
9
Lattice="13.0 0.0 0.0 0.0 9.0 0.0 0.0 0.0 9.0" Properties=species:S:1:pos:R:3:momenta:R:3:forces:R:3 EPS_SCF=1e-06 energy=-1400.906712200895 units=gap_units Integrated_spin_density=6.55109e-05 opt_dir=/home/tks32/dft_pbe/apr_8_opt_fragments_subset/singlepoint_1_CO2 time=40.0 free_energy=-1400.906712200895 pbc="T T T"
C       -0.10073938      -0.04658693       0.15062731      -1.84174930       0.08776242       0.23709142       0.14686419       0.21098203      -0.05930562
O       -0.67650919      -1.00798116      -0.18462688      -4.07885110      -0.26193226       0.48889950       0.06908801      -0.22319343      -0.01578731
O        0.59358672       0.84314162       0.50428396       1.64979813      -1.41445752      -0.12201983       0.01454680       0.42339485      -0.13513035
C        3.69879937       0.69389547       0.26266798       1.83062567       1.89343391       1.31254236      -0.00511966      -0.10105445       0.00096373
C        2.87106104       0.02090003      -0.58851154       3.27375021      -1.21804969      -1.67947940      -0.08450445      -0.06942861       0.00283082
H        3.36043911       1.63650327       0.68938590       0.15074160       0.02871487      -0.02275512      -0.22342528      -0.27766757       0.03328806
H        4.69672006       0.35768086       0.55809118      -0.29226259       0.19844652       0.08316324      -0.02820399       0.13944606      -0.03317981
H        1.91960127       0.47392223      -0.82439034      -0.63318020       0.17845348      -0.42574139       0.13102592      -0.00589489       0.17951255
H        3.18225800      -0.92440336      -1.04897684      -0.05887241       0.50762827       0.12829921      -0.02027154      -0.09658398       0.02680795
9
Lattice="13.0 0.0 0.0 0.0 9.0 0.0 0.0 0.0 9.0" Properties=species:S:1:pos:R:3:momenta:R:3:forces:R:3 EPS_SCF=1e-06 energy=-1400.906712200895 units=gap_units Integrated_spin_density=6.55109e-05 opt_dir=/home/tks32/dft_pbe/apr_8_opt_fragments_subset/singlepoint_1_CO2 time=45.0 free_energy=-1400.906712200895 pbc="T T T"
C        0.27895085      -0.05681452       0.03352660      -0.70529739      -0.21554461       0.03084061       0.14686419       0.21098203      -0.05930562
O       -0.26889083      -1.01317140      -0.36927955      -4.69629755       0.22684929       0.67106553       0.06908801      -0.22319343      -0.01578731
O        1.06701922       0.80821007       0.41054056       0.95080043      -2.22288219      -0.14487826       0.01454680       0.42339485      -0.13513035
C        3.60025891       0.55848138       0.25995133       0.71031219       2.17650763       0.49257679      -0.00511966      -0.10105445       0.00096373
C        3.19685265      -0.28860869      -0.55207827       3.97389217      -0.66991614      -1.00108177      -0.08450445      -0.06942861       0.00283082
H        3.15368261       1.56267287       0.33316522      -0.33863996      -0.06101674      -0.15200695      -0.22342528      -0.27766757       0.03328806
H        4.52972988       0.40223902       0.87168920       0.23059481      -0.25800777       0.25961393      -0.02820399       0.13944606      -0.03317981
H        1.36814115       1.42172769      -0.41857955      -0.15708762       0.78027349      -0.30561937       0.13102592      -0.00589489       0.17951255
H        2.61601499      -1.10240953      -1.01090118       0.03172293       0.24373704       0.14948950      -0.02027154      -0.09658398       0.02680795
9
Lattice="13.0 0.0 0.0 0.0 9.0 0.0 0.0 0.0 9.0" Properties=species:S:1:pos:R:3:momenta:R:3:forces:R:3 EPS_SCF=1e-06 energy=-1400.906712200895 units=gap_units Integrated_spin_density=6.55109e-05 opt_dir=/home/tks32/dft_pbe/apr_8_opt_fragments_subset/singlepoint_1_CO2 time=50.0 free_energy=-1400.906712200895 pbc="T T T"
C        0.25271385      -0.02950089       0.03106909       0.49901376       0.50477729      -0.23107253       0.14686419       0.21098203      -0.05930562
O       -0.25311793      -1.00359346      -0.37258250      -5.57987722       0.25231586       0.91248780       0.06908801      -0.22319343      -0.01578731
O        1.01950803       0.85721145       0.41639581       0.61525100      -2.78051949      -0.32714727       0.01454680       0.42339485      -0.13513035
C        3.55746230       0.60608121       0.25548013       0.41937185       0.54670914      -0.65103739      -0.00511966      -0.10105445       0.00096373
C        3.15178878      -0.23947436      -0.55050914       4.71549964       0.96114813       0.09274312      -0.08450445      -0.06942861       0.00283082
H        3.13485272       1.62428897       0.31944907      -0.03153091       0.09598405       0.01566817      -0.22342528      -0.27766757       0.03328806
H        4.47149017       0.43762816       0.88605242      -0.29078840       0.07017909       0.04995092      -0.02820399       0.13944606      -0.03317981
H        1.32827577       1.47689364      -0.40574045      -0.58430871       0.59655093       0.20437585       0.13102592      -0.00589489       0.17951255
H        2.54978300      -0.99757864      -1.07568698       0.23736901      -0.24714500      -0.06596865      -0.02027154      -0.09658398       0.02680795
9
Lattice="13.0 0.0 0.0 0.0 9.0 0.0 0.0 0.0 9.0" Properties=species:S:1:pos:R:3:momenta:R:3:forces:R:3 EPS_SCF=1e-06 energy=-1400.906712200895 units=gap_units Integrated_spin_density=6.55109e-05 opt_dir=/home/tks32/dft_pbe/apr_8_opt_fragments_subset/singlepoint_1_CO2 time=55.0 free_energy=-1400.906712200895 pbc="T T T"
C        0.28541604      -0.05631324       0.00421244       1.06440032      -0.54968677      -0.79122539       0.14686419       0.21098203      -0.05930562
O       -0.20619092      -1.02499246      -0.43177372      -5.75617310       1.04587006       0.95316357       0.06908801      -0.22319343      -0.01578731
O        1.04387037       0.80853922       0.45345267       0.64599825      -2.14366210      -0.31912996       0.01454680       0.42339485      -0.13513035
C        3.57713873       0.62907678       0.30075767      -0.22386827      -0.00384342      -1.25328879      -0.00511966      -0.10105445       0.00096373
C        3.19115862      -0.24306569      -0.49491791       3.50028049       1.91148000       0.25727335      -0.08450445      -0.06942861       0.00283082
H        3.18309567       1.65585667       0.24654366       0.38974848      -0.00479165       0.18322569      -0.22342528      -0.27766757       0.03328806
H        4.41044308       0.48749158       1.03301481      -0.17680896       0.25606245       0.40591866      -0.02820399       0.13944606      -0.03317981
H        1.34534965       1.50265201      -0.30551351      -0.35906204       0.15702046       0.34263913       0.13102592      -0.00589489       0.17951255
H        2.57537713      -1.01761712      -0.97765006       0.91548482      -0.66844903       0.22142373      -0.02027154      -0.09658398       0.02680795
9
Lattice="13.0 0.0 0.0 0.0 9.0 0.0 0.0 0.0 9.0" Properties=species:S:1:pos:R:3:momenta:R:3:forces:R:3 EPS_SCF=1e-06 energy=-1400.906712200895 units=gap_units Integrated_spin_density=6.55109e-05 opt_dir=/home/tks32/dft_pbe/apr_8_opt_fragments_subset/singlepoint_1_CO2 time=60.0 free_energy=-1400.906712200895 pbc="T T T"
C        0.16449291      -0.11924514       0.09658608       0.78033896      -2.00530505      -1.12746935       0.14686419       0.21098203      -0.05930562
O       -0.74830032      -0.74107445      -0.29731283      -5.80370321       2.05749461       0.81227059       0.06908801      -0.22319343      -0.01578731
O        1.25580189       0.37249687       0.43465345       1.38293738      -1.64515584      -0.14039356       0.01454680       0.42339485      -0.13513035
C        3.71682351       0.72995394       0.26439284       0.79534822       1.11180849       0.57583317      -0.00511966      -0.10105445       0.00096373
C        3.53376052      -0.26011975      -0.45293841       2.64091091       0.54924985      -0.86729830      -0.08450445      -0.06942861       0.00283082
H        3.27423099       1.71814253       0.00008915      -0.08280224       0.22018502      -0.16286257      -0.22342528      -0.27766757       0.03328806
H        3.96047417       0.74606754       1.33619501      -0.40570651       0.25370967       0.20956068      -0.02820399       0.13944606      -0.03317981
H        1.32392269       1.31612481      -0.04846882      -0.10687573       0.15235281       0.51978462       0.13102592      -0.00589489       0.17951255
H        3.15846159      -1.06430389      -1.08204893       0.79955222      -0.69433957       0.18057470      -0.02027154      -0.09658398       0.02680795
9
Lattice="13.0 0.0 0.0 0.0 9.0 0.0 0.0 0.0 9.0" Properties=species:S:1:pos:R:3:momenta:R:3:forces:R:3 EPS_SCF=1e-06 energy=-1400.906712200895 units=gap_units Integrated_spin_density=6.55109e-05 opt_dir=/home/tks32/dft_pbe/apr_8_opt_fragments_subset/singlepoint_1_CO2 time=65.0 free_energy=-1400.906712200895 pbc="T T T"
C        0.11829090      -0.26635604      -0.01496529       0.74494469      -1.47498520      -0.57663261       0.14686419       0.21098203      -0.05930562
O       -0.92225771      -0.73009893      -0.28849936      -5.35157916       1.74973118       0.87583515       0.06908801      -0.22319343      -0.01578731
O        1.28282392       0.14714648       0.18079097       1.49693089      -1.99942738      -0.19525842       0.01454680       0.42339485      -0.13513035
C        3.81248411       0.83568285       0.31422088       1.07978784       2.09160273       0.49727749      -0.00511966      -0.10105445       0.00096373
C        3.60167213      -0.19001293      -0.34655238       1.81616457       0.33030697      -1.25473788      -0.08450445      -0.06942861       0.00283082
H        3.69142028       1.83648362      -0.13384426      -0.22449762      -0.38263457      -0.50226794      -0.22342528      -0.27766757       0.03328806
H        3.84134312       0.86291294       1.41421443      -0.54186581       0.16297548       0.48820618      -0.02820399       0.13944606      -0.03317981
H        1.15291596       1.17202222       0.22659908      -0.06041522      -0.15412352       0.52241531       0.13102592      -0.00589489       0.17951255
H        3.22005841      -1.09466531      -0.78797571       1.04052982      -0.32344570       0.14516272      -0.02027154      -0.09658398       0.02680795
9
Lattice="13.0 0.0 0.0 0.0 9.0 0.0 0.0 0.0 9.0" Properties=species:S:1:pos:R:3:momenta:R:3:forces:R:3 EPS_SCF=1e-06 energy=-1400.906712200895 units=gap_units Integrated_spin_density=6.55109e-05 opt_dir=/home/tks32/dft_pbe/apr_8_opt_fragments_subset/singlepoint_1_CO2 time=70.0 free_energy=-1400.906712200895 pbc="T T T"
C        0.09384409      -0.31442343       0.02231299      -0.39399617      -1.01997062       0.04059905       0.14686419       0.21098203      -0.05930562
O       -0.96625849      -0.72057847      -0.27133255      -4.00513235       2.35167613       0.34483729       0.06908801      -0.22319343      -0.01578731
O        1.28122092       0.07267925       0.17434503       2.21444724      -3.24179727      -0.11399855       0.01454680       0.42339485      -0.13513035
C        3.76459823       0.86327572       0.30160082       0.89524528       1.03586957       0.05377025      -0.00511966      -0.10105445       0.00096373
C        3.72510008      -0.17234031      -0.36470311       1.68860665       0.66795496      -0.18516531      -0.08450445      -0.06942861       0.00283082
H        3.46387738       1.80857051      -0.19422322      -0.30562098      -0.05781772      -0.61317547      -0.22342528      -0.27766757       0.03328806
H        3.76152349       0.93048669       1.40674823      -0.54710784       0.24739036      -0.22915773      -0.02820399       0.13944606      -0.03317981
H        1.11410636       1.09846277       0.21830593      -0.36111045      -0.25262054       0.30067438       0.13102592      -0.00589489       0.17951255
H        3.50542253      -1.19477069      -0.64459397       0.81466861       0.26931513       0.40161609      -0.02027154      -0.09658398       0.02680795
9
Lattice="13.0 0.0 0.0 0.0 9.0 0.0 0.0 0.0 9.0" Properties=species:S:1:pos:R:3:momenta:R:3:forces:R:3 EPS_SCF=1e-06 energy=-1400.906712200895 units=gap_units Integrated_spin_density=6.55109e-05 opt_dir=/home/tks32/dft_pbe/apr_8_opt_fragments_subset/singlepoint_1_CO2 time=75.0 free_energy=-1400.906712200895 pbc="T T T"
C        0.08898215      -0.37775854       0.01491753      -1.83855332      -0.29839531       0.87757912       0.14686419       0.21098203      -0.05930562
O       -0.95393715      -0.82429065      -0.28658882      -2.08417673       2.55486654       0.25526418       0.06908801      -0.22319343      -0.01578731
O        1.27483507       0.02424106       0.17015350       1.68988528      -3.88760954      -0.95500563       0.01454680       0.42339485      -0.13513035
C        3.73865518       0.94065975       0.28386581       0.15343965       0.52876462      -1.51318525      -0.00511966      -0.10105445       0.00096373
C        3.74167905      -0.15398866      -0.28002898       1.44381214       1.35348321       0.93143407      -0.08450445      -0.06942861       0.00283082
H        3.43565301       1.85077290      -0.26342426       0.26506352      -0.26867612       0.02566434      -0.22342528      -0.27766757       0.03328806
H        3.71261914       1.06401051       1.37754140       0.02570512       0.34873588      -0.01762559      -0.02820399       0.13944606      -0.03317981
H        1.09937019       1.04272738       0.30148017      -0.21608860      -0.61541799       0.19152878       0.13102592      -0.00589489       0.17951255
H        3.63126668      -1.18781474      -0.56357561       0.56091295       0.28424870       0.20434599      -0.02027154      -0.09658398       0.02680795
9
Lattice="13.0 0.0 0.0 0.0 9.0 0.0 0.0 0.0 9.0" Properties=species:S:1:pos:R:3:momenta:R:3:forces:R:3 EPS_SCF=1e-06 energy=-1400.906712200895 units=gap_units Integrated_spin_density=6.55109e-05 opt_dir=/home/tks32/dft_pbe/apr_8_opt_fragments_subset/singlepoint_1_CO2 time=80.0 free_energy=-1400.906712200895 pbc="T T T"
C        0.16525763      -0.41016093       0.01956326      -1.36672954       0.29250451       1.18231179       0.14686419       0.21098203      -0.05930562
O       -0.90644566      -0.83679856      -0.21660246      -2.33104910       2.24147585      -0.23481948       0.06908801      -0.22319343      -0.01578731
O        1.33827636       0.03817243       0.13421254       0.64134512      -4.72294985      -1.30746574       0.01454680       0.42339485      -0.13513035
C        3.77063384       1.02165060       0.23532539       0.15158964       0.05431986      -1.15807019      -0.00511966      -0.10105445       0.00096373
C        3.83354049      -0.08859543      -0.30243553       1.75264757       0.90581415       1.76786937      -0.08450445      -0.06942861       0.00283082
H        3.49016067       1.90428119      -0.35604859      -0.02391389       0.62477612      -0.16047811      -0.22342528      -0.27766757       0.03328806
H        3.71281932       1.16475657       1.32657039       0.69790974       0.32458330      -0.29454857      -0.02820399       0.13944606      -0.03317981
H        1.07700657       0.98841924       0.44888693       0.18112917      -0.03781994       0.23061306       0.13102592      -0.00589489       0.17951255
H        3.67226436      -1.12979946      -0.50849635       0.29707128       0.31729599      -0.02541212      -0.02027154      -0.09658398       0.02680795
9
Lattice="13.0 0.0 0.0 0.0 9.0 0.0 0.0 0.0 9.0" Properties=species:S:1:pos:R:3:momenta:R:3:forces:R:3 EPS_SCF=1e-06 energy=-1400.906712200895 units=gap_units Integrated_spin_density=6.55109e-05 opt_dir=/home/tks32/dft_pbe/apr_8_opt_fragments_subset/singlepoint_1_CO2 time=85.0 free_energy=-1400.906712200895 pbc="T T T"
C        0.22276798      -0.35234380       0.02441391      -0.63077404       0.31919694       1.47591940       0.14686419       0.21098203      -0.05930562
O       -0.86193005      -0.77209255      -0.13148576      -3.23302443       2.06091676      -0.54916870       0.06908801      -0.22319343      -0.01578731