9
Lattice="13.0 0.0 0.0 0.0 9.0 0.0 0.0 0.0 9.0" Properties=species:S:1:pos:R:3:momenta:R:3:forces:R:3 EPS_SCF=1e-06 energy=-1401.8498565489137 units=gap_units Integrated_spin_density=6.55109e-05 opt_dir=/home/tks32/dft_pbe/apr_8_opt_fragments_subset/singlepoint_1_CO2 time=0.0 free_energy=-1401.8498565489137 pbc="T T T"
C        0.00005179       0.00003613      -0.00008682       5.45409721       0.81308744      -0.21939016      -0.71616740       0.08149946       0.07809209
O       -0.13249936      -1.12387930      -0.32607516       6.91856637       1.60105312       0.69227000      -0.00977908       0.19278975       0.11863108
O        0.13246048       1.12385218       0.32614034       6.44529771      -2.41414056      -0.47287984       0.60777928      -0.29930867      -0.09183241
C        4.52496189       0.32653158       0.25008054      -5.69597901       0.88593916       0.41407752       0.57584140       0.68705888       0.43457017
C        3.47503812      -0.32653161      -0.25008061      -6.07650281      -1.32504139       0.17494715      -0.90079627      -1.10620558      -0.51939988
H        4.40543032       1.17877744       0.91904030      -0.67682574      -0.05175688      -0.30347750      -0.24543082       0.30760755       0.29124838
H        5.54824592       0.03641898       0.01166389      -0.20088037      -0.43346916      -0.14053191       0.55674287       0.06718716      -0.00289928
H        2.45175452      -0.03641814      -0.01166331      -0.11295227       0.37406457       0.09108301       0.27576879       0.09625601      -0.16517842
H        3.59456914      -1.17877784      -0.91904006      -0.29107960       0.55026370      -0.23609827      -0.14395877      -0.02688457      -0.14323174
9
Lattice="13.0 0.0 0.0 0.0 9.0 0.0 0.0 0.0 9.0" Properties=species:S:1:pos:R:3:momenta:R:3:forces:R:3 EPS_SCF=1e-06 energy=-1401.8875350637582 units=gap_units Integrated_spin_density=6.55109e-05 opt_dir=/home/tks32/dft_pbe/apr_8_opt_fragments_subset/singlepoint_1_CO2 time=0.0 free_energy=-1401.8875350637582 pbc="T T T"
C       -0.00710988       0.00085112       0.00069410       5.45409721       0.81308744      -0.21939016      -0.61217860       0.02883623       0.06041976
O       -0.13259715      -1.12195140      -0.32488885       6.91856637       1.60105312       0.69227000      -0.04270027      -0.01232280       0.05570620
O        0.13853827       1.12085909       0.32522202       6.44529771      -2.41414056      -0.47287984       0.60490540      -0.04249376      -0.01522696
C        4.53072030       0.33340217       0.25442624      -5.69597901       0.88593916       0.41407752      -0.01464568       0.10011995      -0.00922417
C        3.46603016      -0.33759367      -0.25527461      -6.07650281      -1.32504139       0.17494715      -0.20919017      -0.41953251      -0.00871068
H        4.40297601       1.18185352       0.92195278      -0.67682574      -0.05175688      -0.30347750      -0.21600491       0.38911276       0.35500561
H        5.55381335       0.03709085       0.01163490      -0.20088037      -0.43346916      -0.14053191       0.49547954       0.12634261       0.04259690
H        2.45451221      -0.03545558      -0.01331509      -0.11295227       0.37406457       0.09108301       0.09551246       0.11302496      -0.14693693
H        3.59312955      -1.17904669      -0.92047238      -0.29107960       0.55026370      -0.23609827      -0.10117776      -0.28308743      -0.33362974
9
Lattice="13.0 0.0 0.0 0.0 9.0 0.0 0.0 0.0 9.0" Properties=species:S:1:pos:R:3:momenta:R:3:forces:R:3 EPS_SCF=1e-06 energy=-1401.9031607327915 units=gap_units Integrated_spin_density=6.55109e-05 opt_dir=/home/tks32/dft_pbe/apr_8_opt_fragments_subset/singlepoint_1_CO2 time=0.0 free_energy=-1401.9031607327915 pbc="T T T"
C       -0.02069837       0.00192108       0.00210192       5.45409721       0.81308744      -0.21939016      -0.40073372       0.08660542       0.07253696
O       -0.13318340      -1.12036008      -0.32317118       6.91856637       1.60105312       0.69227000      -0.12836125      -0.21129208      -0.00375017
O        0.15106640       1.11766949       0.32421785       6.44529771      -2.41414056      -0.47287984       0.56056366       0.08868369       0.02535533
C        4.53573199       0.34075391       0.25822974      -5.69597901       0.88593916       0.41407752      -1.07714076      -0.77450696      -0.65512669
C        3.45548213      -0.35244468      -0.26005085      -6.07650281      -1.32504139       0.17494715       1.12043056       0.62511609       0.74743915
H        4.39824676       1.18916220       0.92871627      -0.67682574      -0.05175688      -0.30347750      -0.16258460       0.30176516       0.28700357
H        5.56460536       0.03916972       0.01210583      -0.20088037      -0.43346916      -0.14053191       0.26428589       0.22670231       0.12204785
H        2.45810858      -0.03327049      -0.01651618      -0.11295227       0.37406457       0.09108301      -0.13298991       0.14405922      -0.11493839
H        3.59065337      -1.18259175      -0.92565430      -0.29107960       0.55026370      -0.23609827      -0.04346988      -0.48713285      -0.48056760
9
Lattice="13.0 0.0 0.0 0.0 9.0 0.0 0.0 0.0 9.0" Properties=species:S:1:pos:R:3:momenta:R:3:forces:R:3 EPS_SCF=1e-06 energy=-1401.9150764222047 units=gap_units Integrated_spin_density=6.55109e-05 opt_dir=/home/tks32/dft_pbe/apr_8_opt_fragments_subset/singlepoint_1_CO2 time=0.0 free_energy=-1401.9150764222047 pbc="T T T"
C       -0.02170021       0.00213760       0.00228326       5.45409721       0.81308744      -0.21939016      -0.39201890       0.05670605       0.06352769
O       -0.13350430      -1.12088831      -0.32318056       6.91856637       1.60105312       0.69227000      -0.14948038      -0.14340640       0.01798022
O        0.15246781       1.11789120       0.32428124       6.44529771      -2.41414056      -0.47287984       0.55145814       0.04609080       0.01296787
C        4.53303914       0.33881764       0.25659193      -5.69597901       0.88593916       0.41407752      -0.60452440      -0.41999805      -0.38588593
C        3.45828321      -0.35088189      -0.25818225      -6.07650281      -1.32504139       0.17494715       0.69569002       0.27232412       0.46822393
H        4.39784030       1.18991662       0.92943378      -0.67682574      -0.05175688      -0.30347750      -0.16208654       0.20706575       0.21258689
H        5.56526607       0.03973647       0.01241095      -0.20088037      -0.43346916      -0.14053191       0.19201714       0.23302450       0.12804292
H        2.45777610      -0.03291034      -0.01680353      -0.11295227       0.37406457       0.09108301      -0.07805251       0.13397060      -0.11992010
H        3.59054469      -1.18380958      -0.92685572      -0.29107960       0.55026370      -0.23609827      -0.05300257      -0.38577737      -0.39752349
9
Lattice="13.0 0.0 0.0 0.0 9.0 0.0 0.0 0.0 9.0" Properties=species:S:1:pos:R:3:momenta:R:3:forces:R:3 EPS_SCF=1e-06 energy=-1401.9250182301992 units=gap_units Integrated_spin_density=6.55109e-05 opt_dir=/home/tks32/dft_pbe/apr_8_opt_fragments_subset/singlepoint_1_CO2 time=0.0 free_energy=-1401.9250182301992 pbc="T T T"
C       -0.02372987       0.00249563       0.00262926       5.45409721       0.81308744      -0.21939016      -0.36978079       0.01630321       0.05103186
O       -0.13422323      -1.12177636      -0.32313726       6.91856637       1.60105312       0.69227000      -0.18839299      -0.03203696       0.05377622
O        0.15531586       1.11822336       0.32437561       6.44529771      -2.41414056      -0.47287984       0.53228525      -0.03348803      -0.01015660
C        4.52887609       0.33586649       0.25400753      -5.69597901       0.88593916       0.41407752       0.04214328       0.07679225      -0.00787280
C        3.46280598      -0.34869178      -0.25515323      -6.07650281      -1.32504139       0.17494715       0.11922988      -0.22044859       0.07252618
H        4.39700809       1.19119141       0.93069124      -0.67682574      -0.05175688      -0.30347750      -0.16208442       0.05785821       0.09526977
H        5.56641323       0.04091707       0.01305399      -0.20088037      -0.43346916      -0.14053191       0.08097371       0.24098316       0.13595871
H        2.45725229      -0.03220071      -0.01740720      -0.11295227       0.37406457       0.09108301       0.01068776       0.11747398      -0.12730511
H        3.59029437      -1.18601568      -0.92908084      -0.29107960       0.55026370      -0.23609827      -0.06506169      -0.22343722      -0.26322823
9
Lattice="13.0 0.0 0.0 0.0 9.0 0.0 0.0 0.0 9.0" Properties=species:S:1:pos:R:3:momenta:R:3:forces:R:3 EPS_SCF=1e-06 energy=-1401.9276402247597 units=gap_units Integrated_spin_density=6.55109e-05 opt_dir=/home/tks32/dft_pbe/apr_8_opt_fragments_subset/singlepoint_1_CO2 time=0.0 free_energy=-1401.9276402247597 pbc="T T T"
C       -0.02688882       0.00287659       0.00312453       5.45409721       0.81308744      -0.21939016      -0.32560592      -0.00372420       0.04381263
O       -0.13554902      -1.12269103      -0.32290454       6.91856637       1.60105312       0.69227000      -0.24063023       0.07774925       0.08964928
O        0.15979685       1.11840166       0.32442394       6.44529771      -2.41414056      -0.47287984       0.50278707      -0.13496341      -0.03947564
C        4.52528119       0.33348712       0.25165321      -5.69597901       0.88593916       0.41407752       0.51802670       0.46214286       0.28756503
C        3.46730603      -0.34751493      -0.25216581      -6.07650281      -1.32504139       0.17494715      -0.31032524      -0.59896127      -0.24444910
H        4.39567514       1.19254717       0.93216620      -0.67682574      -0.05175688      -0.30347750      -0.16255125      -0.08111882      -0.01410277
H        5.56773741       0.04284783       0.01412257      -0.20088037      -0.43346916      -0.14053191      -0.01389108       0.24436960       0.14023847
H        2.45681936      -0.03113881      -0.01840917      -0.11295227       0.37406457       0.09108301       0.10218994       0.09934516      -0.13424767
H        3.58983468      -1.18880618      -0.93203182      -0.29107960       0.55026370      -0.23609827      -0.06999998      -0.06483916      -0.12899024
9
Lattice="13.0 0.0 0.0 0.0 9.0 0.0 0.0 0.0 9.0" Properties=species:S:1:pos:R:3:momenta:R:3:forces:R:3 EPS_SCF=1e-06 energy=-1401.9286852380635 units=gap_units Integrated_spin_density=6.55109e-05 opt_dir=/home/tks32/dft_pbe/apr_8_opt_fragments_subset/singlepoint_1_CO2 time=0.0 free_energy=-1401.9286852380635 pbc="T T T"
C       -0.02709233       0.00287427       0.00315191       5.45409721       0.81308744      -0.21939016      -0.32174455       0.00040746       0.04490403
O       -0.13569941      -1.12264243      -0.32284851       6.91856637       1.60105312       0.69227000      -0.24255977       0.07156841       0.08786603
O        0.16011110       1.11831730       0.32439927       6.44529771      -2.41414056      -0.47287984       0.50222826      -0.13341019      -0.03895993
C        4.52560496       0.33377596       0.25183294      -5.69597901       0.88593916       0.41407752       0.47917082       0.43328463       0.26614010
C        3.46711208      -0.34788928      -0.25231859      -6.07650281      -1.32504139       0.17494715      -0.28123582      -0.56981640      -0.22306742
H        4.39557354       1.19249647       0.93215739      -0.67682574      -0.05175688      -0.30347750      -0.16246140      -0.07244310      -0.00724317
H        5.56772873       0.04300056       0.01421022      -0.20088037      -0.43346916      -0.14053191      -0.00519489       0.24323917       0.13927177
H        2.45688323      -0.03107672      -0.01849307      -0.11295227       0.37406457       0.09108301       0.09996088       0.09943174      -0.13424398
H        3.58979093      -1.18884670      -0.93211244      -0.29107960       0.55026370      -0.23609827      -0.06816353      -0.07226171      -0.13466742
9
Lattice="13.0 0.0 0.0 0.0 9.0 0.0 0.0 0.0 9.0" Properties=species:S:1:pos:R:3:momenta:R:3:forces:R:3 EPS_SCF=1e-06 energy=-1401.9305995752077 units=gap_units Integrated_spin_density=6.55109e-05 opt_dir=/home/tks32/dft_pbe/apr_8_opt_fragments_subset/singlepoint_1_CO2 time=0.0 free_energy=-1401.9305995752077 pbc="T T T"
C       -0.02749757       0.00287245       0.00320755       5.45409721       0.81308744      -0.21939016      -0.31416282       0.00793044       0.04687385
O       -0.13600220      -1.12254930      -0.32273743       6.91856637       1.60105312       0.69227000      -0.24648639       0.05987211       0.08450509
O        0.16074059       1.11814930       0.32435017       6.44529771      -2.41414056      -0.47287984       0.50114849      -0.13025165      -0.03791756
C        4.52622711       0.33433500       0.25217841      -5.69597901       0.88593916       0.41407752       0.40269640       0.37657942       0.22407908
C        3.46674339      -0.34861953      -0.25261007      -6.07650281      -1.32504139       0.17494715      -0.22355113      -0.51251637      -0.18113264
H        4.39536996       1.19240084       0.93214446      -0.67682574      -0.05175688      -0.30347750      -0.16232095      -0.05579975       0.00592329
H        5.56771733       0.04330592       0.01438524      -0.20088037      -0.43346916      -0.14053191       0.01149791       0.24103866       0.13739739
H        2.45700971      -0.03095220      -0.01866125      -0.11295227       0.37406457       0.09108301       0.09573333       0.09958032      -0.13423994
H        3.58970450      -1.18893305      -0.93227796      -0.29107960       0.55026370      -0.23609827      -0.06455485      -0.08643318      -0.14548857
9
Lattice="13.0 0.0 0.0 0.0 9.0 0.0 0.0 0.0 9.0" Properties=species:S:1:pos:R:3:momenta:R:3:forces:R:3 EPS_SCF=1e-06 energy=-1401.9330755354995 units=gap_units Integrated_spin_density=6.55109e-05 opt_dir=/home/tks32/dft_pbe/apr_8_opt_fragments_subset/singlepoint_1_CO2 time=0.0 free_energy=-1401.9330755354995 pbc="T T T"
C       -0.02810240       0.00287688       0.00329345       5.45409721       0.81308744      -0.21939016      -0.30312640       0.01736369       0.04929575
O       -0.13646309      -1.12241972      -0.32257288       6.91856637       1.60105312       0.69227000      -0.25258154       0.04399512       0.07998091
O        0.16169015       1.11789854       0.32427700       6.44529771      -2.41414056      -0.47287984       0.49961954      -0.12539537      -0.03633009
C        4.52709481       0.33512595       0.25266058      -5.69597901       0.88593916       0.41407752       0.29197569       0.29465049       0.16340898
C        3.46624072      -0.34966845      -0.25301084      -6.07650281      -1.32504139       0.17494715      -0.13910677      -0.42964074      -0.12077073
H        4.39506269       1.19227212       0.93213734      -0.67682574      -0.05175688      -0.30347750      -0.16220252      -0.03267365       0.02423589
H        5.56771586       0.04376496       0.01464776      -0.20088037      -0.43346916      -0.14053191       0.03471929       0.23789950       0.13474276
H        2.45719671      -0.03076403      -0.01891521      -0.11295227       0.37406457       0.09108301       0.09000880       0.09973323      -0.13424344
H        3.58957738      -1.18907683      -0.93253811      -0.29107960       0.55026370      -0.23609827      -0.05930608      -0.10593226      -0.16032003
9
Lattice="13.0 0.0 0.0 0.0 9.0 0.0 0.0 0.0 9.0" Properties=species:S:1:pos:R:3:momenta:R:3:forces:R:3 EPS_SCF=1e-06 energy=-1401.9357624390193 units=gap_units Integrated_spin_density=6.55109e-05 opt_dir=/home/tks32/dft_pbe/apr_8_opt_fragments_subset/singlepoint_1_CO2 time=0.0 free_energy=-1401.9357624390193 pbc="T T T"
C       -0.02890527       0.00289568       0.00341281       5.45409721       0.81308744      -0.21939016      -0.28900062       0.02661053       0.05156610
O       -0.13709331      -1.12226557      -0.32235656       6.91856637       1.60105312       0.69227000      -0.26116542       0.02588368       0.07490233
O        0.16297086       1.11756592       0.32418017       6.44529771      -2.41414056      -0.47287984       0.49773177      -0.11878271      -0.03419306
C        4.52812476       0.33608909       0.25323391      -5.69597901       0.88593916       0.41407752       0.15414016       0.19281890       0.08820148
C        3.46566967      -0.35097891      -0.25347453      -6.07650281      -1.32504139       0.17494715      -0.03263416      -0.32644482      -0.04623694
H        4.39464780       1.19212841       0.93215161      -0.67682574      -0.05175688      -0.30347750      -0.16219980      -0.00542169       0.04584858
H        5.56774414       0.04438099       0.01499896      -0.20088037      -0.43346916      -0.14053191       0.06213513       0.23404265       0.13151926
H        2.45744177      -0.03050962      -0.01925826      -0.11295227       0.37406457       0.09108301       0.08362079       0.09978620      -0.13426947
H        3.58941239      -1.18929657      -0.93290899      -0.29107960       0.55026370      -0.23609827      -0.05262786      -0.12849274      -0.17733827
9
Lattice="13.0 0.0 0.0 0.0 9.0 0.0 0.0 0.0 9.0" Properties=species:S:1:pos:R:3:momenta:R:3:forces:R:3 EPS_SCF=1e-06 energy=-1401.9383947594333 units=gap_units Integrated_spin_density=6.55109e-05 opt_dir=/home/tks32/dft_pbe/apr_8_opt_fragments_subset/singlepoint_1_CO2 time=0.0 free_energy=-1401.9383947594333 pbc="T T T"
C       -0.02990374       0.00293799       0.00356945       5.45409721       0.81308744      -0.21939016      -0.27224222       0.03325610       0.05299122
O       -0.13790982      -1.12210213      -0.32209038       6.91856637       1.60105312       0.69227000      -0.27272847       0.00797023       0.07003715
O        0.16459864       1.11715317       0.32406037       6.44529771      -2.41414056      -0.47287984       0.49556671      -0.11055884      -0.03156556
C        4.52919886       0.33714000       0.25383410      -5.69597901       0.88593916       0.41407752       0.00230531       0.08060921       0.00567980
C        3.46512458      -0.35246995      -0.25393599      -6.07650281      -1.32504139       0.17494715       0.08612233      -0.21236749       0.03495594
H        4.39411956       1.19199389       0.93220822      -0.67682574      -0.05175688      -0.30347750      -0.16240893       0.02260935       0.06813311
H        5.56782891       0.04515885       0.01544058      -0.20088037      -0.43346916      -0.14053191       0.09041973       0.22980508       0.12804368
H        2.45774216      -0.03018539      -0.01969518      -0.11295227       0.37406457       0.09108301       0.07780039       0.09957446      -0.13434183
H        3.58921366      -1.18961700      -0.93341206      -0.29107960       0.55026370      -0.23609827      -0.04483484      -0.15089810      -0.19393352
9
Lattice="13.0 0.0 0.0 0.0 9.0 0.0 0.0 0.0 9.0" Properties=species:S:1:pos:R:3:momenta:R:3:forces:R:3 EPS_SCF=1e-06 energy=-1401.940922347939 units=gap_units Integrated_spin_density=6.55109e-05 opt_dir=/home/tks32/dft_pbe/apr_8_opt_fragments_subset/singlepoint_1_CO2 time=0.0 free_energy=-1401.940922347939 pbc="T T T"
C       -0.03108607       0.00301074       0.00376565       5.45409721       0.81308744      -0.21939016      -0.25343343       0.03524251       0.05298644
O       -0.13892890      -1.12194673      -0.32177782       6.91856637       1.60105312       0.69227000      -0.28781701      -0.00717990       0.06620054
O        0.16658008       1.11666647       0.32391966       6.44529771      -2.41414056      -0.47287984       0.49315574      -0.10135559      -0.02865215
C        4.53016795       0.33816981       0.25438019      -5.69597901       0.88593916       0.41407752      -0.14325668      -0.02746977      -0.07324467
C        3.46472375      -0.35403320      -0.25431488      -6.07650281      -1.32504139       0.17494715       0.20114001      -0.10183318       0.11152735
H        4.39347490       1.19189639       0.93233017      -0.67682574      -0.05175688      -0.30347750      -0.16290097       0.04723043       0.08778907
H        5.56799944       0.04609840       0.01597148      -0.20088037      -0.43346916      -0.14053191       0.11538115       0.22564402       0.12473705
H        2.45809358      -0.02978981      -0.02022842      -0.11295227       0.37406457       0.09108301       0.07410676       0.09888421      -0.13448766
H        3.58898808      -1.19006264      -0.93406693      -0.29107960       0.55026370      -0.23609827      -0.03637557      -0.16916272      -0.20685597
9
Lattice="13.0 0.0 0.0 0.0 9.0 0.0 0.0 0.0 9.0" Properties=species:S:1:pos:R:3:momenta:R:3:forces:R:3 EPS_SCF=1e-06 energy=-1401.9435460388884 units=gap_units Integrated_spin_density=6.55109e-05 opt_dir=/home/tks32/dft_pbe/apr_8_opt_fragments_subset/singlepoint_1_CO2 time=0.0 free_energy=-1401.9435460388884 pbc="T T T"
C       -0.03242293       0.00311414       0.00399926       5.45409721       0.81308744      -0.21939016      -0.23323860       0.03185540       0.05136369
O       -0.14015585      -1.12181460      -0.32142527       6.91856637       1.60105312       0.69227000      -0.30676923      -0.01763905       0.06400681
O        0.16889416       1.11611936       0.32376219       6.44529771      -2.41414056      -0.47287984       0.49043625      -0.09243703      -0.02584136
C        4.53088595       0.33906708       0.25479284      -5.69597901       0.88593916       0.41407752      -0.25932074      -0.11485666      -0.13622033
C        3.46457948      -0.35554972      -0.25453584      -6.07650281      -1.32504139       0.17494715       0.29339584      -0.01130444       0.17083482
H        4.39271937       1.19185947       0.93253442      -0.67682574      -0.05175688      -0.30347750      -0.16368431       0.06438119       0.10160370
H        5.56827709       0.04718685       0.01658354      -0.20088037      -0.43346916      -0.14053191       0.13295616       0.22203498       0.12202789
H        2.45848963      -0.02932737      -0.02085307      -0.11295227       0.37406457       0.09108301       0.07399196       0.09752160      -0.13471881
H        3.58874591      -1.19064579      -0.93487895      -0.29107960       0.55026370      -0.23609827      -0.02776732      -0.17955600      -0.21305642
9
Lattice="13.0 0.0 0.0 0.0 9.0 0.0 0.0 0.0 9.0" Properties=species:S:1:pos:R:3:momenta:R:3:forces:R:3 EPS_SCF=1e-06 energy=-1401.946942487516 units=gap_units Integrated_spin_density=6.55109e-05 opt_dir=/home/tks32/dft_pbe/apr_8_opt_fragments_subset/singlepoint_1_CO2 time=0.0 free_energy=-1401.946942487516 pbc="T T T"
C       -0.03403756       0.00325627       0.00429465       5.45409721       0.81308744      -0.21939016      -0.20989819       0.02288697       0.04800817
O       -0.14175343      -1.12170580      -0.32099635       6.91856637       1.60105312       0.69227000      -0.33230525      -0.02288375       0.06377212
O        0.17179727       1.11546234       0.32357403       6.44529771      -2.41414056      -0.47287984       0.48687050      -0.08476966      -0.02341252
C        4.53127308       0.33981201       0.25503133      -5.69597901       0.88593916       0.41407752      -0.33209289      -0.17224775      -0.17611157
C        3.46480288      -0.35706519      -0.25454135      -6.07650281      -1.32504139       0.17494715       0.35109427       0.05049721       0.20499066
H        4.39176709       1.19190328       0.93286344      -0.67682574      -0.05175688      -0.30347750      -0.16482925       0.07154424       0.10760356
H        5.56871793       0.04854157       0.01734180      -0.20088037      -0.43346916      -0.14053191       0.14066948       0.21906631       0.12006507
H        2.45897406      -0.02874782      -0.02163964      -0.11295227       0.37406457       0.09108301       0.07902724       0.09511030      -0.13504531
H        3.58847150      -1.19144723      -0.93594879      -0.29107960       0.55026370      -0.23609827      -0.01853591      -0.17920388      -0.20987019
9
Lattice="13.0 0.0 0.0 0.0 9.0 0.0 0.0 0.0 9.0" Properties=species:S:1:pos:R:3:momenta:R:3:forces:R:3 EPS_SCF=1e-06 energy=-1401.9516088001044 units=gap_units Integrated_spin_density=6.55109e-05 opt_dir=/home/tks32/dft_pbe/apr_8_opt_fragments_subset/singlepoint_1_CO2 time=0.0 free_energy=-1401.9516088001044 pbc="T T T"
C       -0.03594324       0.00343043       0.00465727       5.45409721       0.81308744      -0.21939016      -0.18311727       0.00972473       0.04331895
O       -0.14382034      -1.12163127      -0.32047846       6.91856637       1.60105312       0.69227000      -0.36594598      -0.02180556       0.06593500
O        0.17538298       1.11468782       0.32335348       6.44529771      -2.41414056      -0.47287984       0.48188033      -0.08116993      -0.02220403
C        4.53117354       0.34029968       0.25501144      -5.69597901       0.88593916       0.41407752      -0.33585945      -0.18135091      -0.17932765
C        3.46553516      -0.35849370      -0.25424854      -6.07650281      -1.32504139       0.17494715       0.35316401       0.06585556       0.19993467
H        4.39058344       1.19205080       0.93334611      -0.67682574      -0.05175688      -0.30347750      -0.16632536       0.06439779       0.10235504
H        5.56935953       0.05020299       0.01826801      -0.20088037      -0.43346916      -0.14053191       0.13419295       0.21709415       0.11921509
H        2.45956918      -0.02803503      -0.02261571      -0.11295227       0.37406457       0.09108301       0.09083715       0.09137988      -0.13539298
H        3.58817256      -1.19250229      -0.93731449      -0.29107960       0.55026370      -0.23609827      -0.00882639      -0.16412570      -0.19383408
9
Lattice="13.0 0.0 0.0 0.0 9.0 0.0 0.0 0.0 9.0" Properties=species:S:1:pos:R:3:momenta:R:3:forces:R:3 EPS_SCF=1e-06 energy=-1401.9578044542525 units=gap_units Integrated_spin_density=6.55109e-05 opt_dir=/home/tks32/dft_pbe/apr_8_opt_fragments_subset/singlepoint_1_CO2 time=0.0 free_energy=-1401.9578044542525 pbc="T T T"
C       -0.03815522       0.00362029       0.00509303       5.45409721       0.81308744      -0.21939016      -0.15223611      -0.00441146       0.03822283
O       -0.14651296      -1.12159557      -0.31984896       6.91856637       1.60105312       0.69227000      -0.40942315      -0.01441671       0.07060781
O        0.17978589       1.11377697       0.32309571       6.44529771      -2.41414056      -0.47287984       0.47465383      -0.08524424      -0.02327990
C        4.53048568       0.34046545       0.25467716      -5.69597901       0.88593916       0.41407752      -0.25544114      -0.13110661      -0.13775316
C        3.46688117      -0.35979554      -0.25360733      -6.07650281      -1.32504139       0.17494715       0.28793836       0.02466543       0.14731527
H        4.38911731       1.19231013       0.93400454      -0.67682574      -0.05175688      -0.30347750      -0.16814165       0.04029037       0.08372767
H        5.57023149       0.05223222       0.01939609      -0.20088037      -0.43346916      -0.14053191       0.11086451       0.21614264       0.11958312
H        2.46031898      -0.02716753      -0.02382164      -0.11295227       0.37406457       0.09108301       0.11016575       0.08621480      -0.13556568
H        3.58786047      -1.19383699      -0.93900950      -0.29107960       0.55026370      -0.23609827       0.00161959      -0.13213422      -0.16285795
9
Lattice="13.0 0.0 0.0 0.0 9.0 0.0 0.0 0.0 9.0" Properties=species:S:1:pos:R:3:momenta:R:3:forces:R:3 EPS_SCF=1e-06 energy=-1401.9653441652802 units=gap_units Integrated_spin_density=6.55109e-05 opt_dir=/home/tks32/dft_pbe/apr_8_opt_fragments_subset/singlepoint_1_CO2 time=0.0 free_energy=-1401.9653441652802 pbc="T T T"
C       -0.04068725       0.00379917       0.00560996       5.45409721       0.81308744      -0.21939016      -0.11632248      -0.01509815       0.03399544
O       -0.15008825      -1.12159183      -0.31906835       6.91856637       1.60105312       0.69227000      -0.46452813      -0.00215759       0.07747171
O        0.18520349       1.11268471       0.32278845       6.44529771      -2.41414056      -0.47287984       0.46438585      -0.10048447      -0.02765823
C        4.52924044       0.34034164       0.25404206      -5.69597901       0.88593916       0.41407752      -0.09992524      -0.02741312      -0.05590465
C        3.46885163      -0.36103434      -0.25264631      -6.07650281      -1.32504139       0.17494715       0.16493630      -0.06567554       0.05200544
H        4.38729110       1.19265635       0.93484275      -0.67682574      -0.05175688      -0.30347750      -0.17023319       0.00047351       0.05267154
H        5.57134150       0.05472333       0.02077968      -0.20088037      -0.43346916      -0.14053191       0.07200993       0.21557184       0.12073944
H        2.46130612      -0.02611619      -0.02531771      -0.11295227       0.37406457       0.09108301       0.13587654       0.07984996      -0.13521588
H        3.58755405      -1.19545342      -0.94105142      -0.29107960       0.55026370      -0.23609827       0.01380044      -0.08506643      -0.11810481
9
Lattice="13.0 0.0 0.0 0.0 9.0 0.0 0.0 0.0 9.0" Properties=species:S:1:pos:R:3:momenta:R:3:forces:R:3 EPS_SCF=1e-06 energy=-1401.9739914670188 units=gap_units Integrated_spin_density=6.55109e-05 opt_dir=/home/tks32/dft_pbe/apr_8_opt_fragments_subset/singlepoint_1_CO2 time=0.0 free_energy=-1401.9739914670188 pbc="T T T"
C       -0.04353054       0.00393478       0.00621912       5.45409721       0.81308744      -0.21939016      -0.07490588      -0.01942237       0.03149364
O       -0.15494359      -1.12159416      -0.31807531       6.91856637       1.60105312       0.69227000      -0.53247484       0.01218023       0.08575873