9
Lattice="13.0 0.0 0.0 0.0 9.0 0.0 0.0 0.0 9.0" Properties=species:S:1:pos:R:3:momenta:R:3:forces:R:3 EPS_SCF=1e-06 energy=-1398.8987801937158 units=gap_units Integrated_spin_density=6.55109e-05 opt_dir=/home/tks32/dft_pbe/apr_8_opt_fragments_subset/singlepoint_1_CO2 time=70.0 free_energy=-1398.8987801937158 pbc="T T T"
C        0.31741489      -0.19070014      -0.08871531      -0.39399617      -1.01997062       0.04059905      -3.83333289       0.25285367       1.18842790
O       -0.62660185      -0.96330184      -0.14490281      -4.00513235       2.35167613       0.34483729       3.45141528       1.93915682      -0.43826536
O        1.19309568       0.64054670       0.28643317       2.21444724      -3.24179727      -0.11399855       1.24676671      -3.29560946      -0.82380994
C        3.66355620       0.73233611       0.34527677       0.89524528       1.03586957       0.05377025      -1.76928326      -0.72166138      -2.51144222
C        3.63716115      -0.31914307      -0.50879535       1.68860665       0.66795496      -0.18516531       0.42416683       0.39774047       1.90916227
H        3.05268188       1.57338057      -0.18568686      -0.30562098      -0.05781772      -0.61317547       1.43396606      -0.83867223       1.30887967
H        3.68991037       0.71054121       1.47850786      -0.54710784       0.24739036      -0.22915773       0.50971963       0.26872632      -0.70442758
H        0.91574610       1.58849147       0.26112212      -0.36111045      -0.25262054       0.30067438      -0.68620483       0.19032750      -0.40509041
H        3.90047017      -1.40078897      -0.79477943       0.81466861       0.26931513       0.40161609      -0.77721354       1.80713830       0.47656568
9
Lattice="13.0 0.0 0.0 0.0 9.0 0.0 0.0 0.0 9.0" Properties=species:S:1:pos:R:3:momenta:R:3:forces:R:3 EPS_SCF=1e-06 energy=-1399.3114302436295 units=gap_units Integrated_spin_density=6.55109e-05 opt_dir=/home/tks32/dft_pbe/apr_8_opt_fragments_subset/singlepoint_1_CO2 time=70.0 free_energy=-1399.3114302436295 pbc="T T T"
C        0.27908156      -0.18817160      -0.07683103      -0.39399617      -1.01997062       0.04059905       1.16937898       3.62363071       1.61210387
O       -0.59208770      -0.94391027      -0.14928546      -4.00513235       2.35167613       0.34483729      -1.19234494      -1.70386071      -0.81590829
O        1.20556335       0.60759061       0.27819507       2.21444724      -3.24179727      -0.11399855      -0.06261574      -1.72982724      -0.94989008
C        3.64586337       0.72511950       0.32016235       0.89524528       1.03586957       0.05377025      -0.99784714      -0.86079383      -0.96576553
C        3.64140282      -0.31516567      -0.48970373       1.68860665       0.66795496      -0.18516531       0.27976061       0.23343424       1.37468247
H        3.06702154       1.56499385      -0.17259806      -0.30562098      -0.05781772      -0.61317547       0.99354258      -0.18203667       0.78447502
H        3.69500757       0.71322847       1.47146358      -0.54710784       0.24739036      -0.22915773       0.49168723       0.29351968      -1.18820350
H        0.90888405       1.59039474       0.25707122      -0.36111045      -0.25262054       0.30067438      -0.02069245      -1.13956270      -0.27375514
H        3.89269803      -1.38271759      -0.79001377       0.81466861       0.26931513       0.40161609      -0.66086913       1.46549652       0.42226118
9
Lattice="13.0 0.0 0.0 0.0 9.0 0.0 0.0 0.0 9.0" Properties=species:S:1:pos:R:3:momenta:R:3:forces:R:3 EPS_SCF=1e-06 energy=-1399.6583984203899 units=gap_units Integrated_spin_density=6.55109e-05 opt_dir=/home/tks32/dft_pbe/apr_8_opt_fragments_subset/singlepoint_1_CO2 time=70.0 free_energy=-1399.6583984203899 pbc="T T T"
C        0.25784878      -0.14478394      -0.04784502      -0.39399617      -1.01997062       0.04059905      -0.26010777       0.68985680       0.66714540
O       -0.57455273      -0.94578905      -0.16248676      -4.00513235       2.35167613       0.34483729      -1.32189813      -1.22597663      -0.76831854
O        1.21607384       0.55830433       0.26000378       2.21444724      -3.24179727      -0.11399855       0.56448937       1.32763913      -0.06638855
C        3.61861872       0.70885839       0.28660226       0.89524528       1.03586957       0.05377025       0.21157513      -1.69347938       0.44826061
C        3.64839435      -0.30893757      -0.45692478       1.68860665       0.66795496      -0.18516531      -0.03141116       0.66272457       1.10686585
H        3.09119949       1.55538050      -0.15191787      -0.30562098      -0.05781772      -0.61317547       0.20950395       0.89370087       0.01671305
H        3.70517349       0.71897714       1.45164295      -0.54710784       0.24739036      -0.22915773       0.35486187       0.28405936      -1.51717851
H        0.90247344       1.57917876       0.25031951      -0.36111045      -0.25262054       0.30067438       0.65068892      -1.65297407      -0.11054619
H        3.87820521      -1.34982652      -0.78093391       0.81466861       0.26931513       0.40161609      -0.37770218       0.71444935       0.22344688
9
Lattice="13.0 0.0 0.0 0.0 9.0 0.0 0.0 0.0 9.0" Properties=species:S:1:pos:R:3:momenta:R:3:forces:R:3 EPS_SCF=1e-06 energy=-1399.5293150602677 units=gap_units Integrated_spin_density=6.55109e-05 opt_dir=/home/tks32/dft_pbe/apr_8_opt_fragments_subset/singlepoint_1_CO2 time=70.0 free_energy=-1399.5293150602677 pbc="T T T"
C        0.23545513      -0.09702487      -0.01333419      -0.39399617      -1.01997062       0.04059905      -3.39086959      -3.71042777      -0.67949492
O       -0.57546164      -0.96295921      -0.18406876      -4.00513235       2.35167613       0.34483729       0.58897576       1.42697926      -0.13358952
O        1.23266056       0.53070955       0.24279340       2.21444724      -3.24179727      -0.11399855       1.20569147       2.64994424       0.69129953
C        3.59676991       0.67284141       0.26205794       0.89524528       1.03586957       0.05377025       0.51226010       5.25923704       5.49736267
C        3.65429013      -0.29496467      -0.41344836       1.68860665       0.66795496      -0.18516531       0.16616604      -5.99955443      -3.84956498
H        3.11560486       1.55801241      -0.13309467      -0.30562098      -0.05781772      -0.61317547      -0.07196793       1.15931500      -0.31877394
H        3.71880333       0.72773750       1.41464838      -0.54710784       0.24739036      -0.22915773       0.22555286       0.16762887      -1.23637135
H        0.90491954       1.54821381       0.24284721      -0.36111045      -0.25262054       0.30067438       0.95367288      -1.13492604      -0.00183499
H        3.86039277      -1.31120388      -0.76994078       0.81466861       0.26931513       0.40161609      -0.18948159       0.18180383       0.03096749
9
Lattice="13.0 0.0 0.0 0.0 9.0 0.0 0.0 0.0 9.0" Properties=species:S:1:pos:R:3:momenta:R:3:forces:R:3 EPS_SCF=1e-06 energy=-1399.7748853044425 units=gap_units Integrated_spin_density=6.55109e-05 opt_dir=/home/tks32/dft_pbe/apr_8_opt_fragments_subset/singlepoint_1_CO2 time=70.0 free_energy=-1399.7748853044425 pbc="T T T"
C        0.22697796      -0.10630094      -0.01503293      -0.39399617      -1.01997062       0.04059905      -1.41275449      -1.91117187      -0.20323743
O       -0.57398920      -0.95939176      -0.18440274      -4.00513235       2.35167613       0.34483729      -0.27496722       0.42029910      -0.32244829
O        1.23567479       0.53733441       0.24452165       2.21444724      -3.24179727      -0.11399855       0.13325212       1.77642625       0.39581057
C        3.59805056       0.68598950       0.27580135       0.89524528       1.03586957       0.05377025       0.76738380       0.95210011       2.12208154
C        3.65470554      -0.30996356      -0.42307227       1.68860665       0.66795496      -0.18516531      -0.25263708      -1.02442606      -0.66988964
H        3.11542494       1.56091070      -0.13389161      -0.30562098      -0.05781772      -0.61317547      -0.03015658       1.08887090      -0.27241005
H        3.71936721       0.72815657       1.41155745      -0.54710784       0.24739036      -0.22915773       0.27432747       0.22552143      -0.86411923
H        0.90730372       1.54537649       0.24284262      -0.36111045      -0.25262054       0.30067438       0.84791643      -1.04492105      -0.00852887
H        3.85991907      -1.31074937      -0.76986336       0.81466861       0.26931513       0.40161609      -0.05236445      -0.48269880      -0.17725859
9
Lattice="13.0 0.0 0.0 0.0 9.0 0.0 0.0 0.0 9.0" Properties=species:S:1:pos:R:3:momenta:R:3:forces:R:3 EPS_SCF=1e-06 energy=-1399.7937982244227 units=gap_units Integrated_spin_density=6.55109e-05 opt_dir=/home/tks32/dft_pbe/apr_8_opt_fragments_subset/singlepoint_1_CO2 time=70.0 free_energy=-1399.7937982244227 pbc="T T T"
C        0.21487164      -0.12070569      -0.01720583      -0.39399617      -1.01997062       0.04059905       1.25077680       0.65039867       0.43606435
O       -0.57353535      -0.95484918      -0.18572511      -4.00513235       2.35167613       0.34483729      -1.55765286      -1.08009417      -0.60290446
O        1.23880986       0.54892608       0.24733135       2.21444724      -3.24179727      -0.11399855      -1.05914366       0.43068863       0.03349221
C        3.60163489       0.70083988       0.29489505       0.89524528       1.03586957       0.05377025       0.77459534      -1.89363822      -0.75902529
C        3.65427884      -0.32670885      -0.43385660       1.68860665       0.66795496      -0.18516531      -0.58675870       2.69640648       1.65400046
H        3.11516745       1.56696967      -0.13547209      -0.30562098      -0.05781772      -0.61317547       0.09796504       0.85163598      -0.14073873
H        3.72074402       0.72924839       1.40603731      -0.54710784       0.24739036      -0.22915773       0.35278350       0.28274578      -0.20134135
H        0.91213643       1.53951167       0.24281146      -0.36111045      -0.25262054       0.30067438       0.62987623      -0.74327424      -0.02194541
H        3.85932680      -1.31186993      -0.77035539       0.81466861       0.26931513       0.40161609       0.09755831      -1.19486892      -0.39760179
9
Lattice="13.0 0.0 0.0 0.0 9.0 0.0 0.0 0.0 9.0" Properties=species:S:1:pos:R:3:momenta:R:3:forces:R:3 EPS_SCF=1e-06 energy=-1399.809354993418 units=gap_units Integrated_spin_density=6.55109e-05 opt_dir=/home/tks32/dft_pbe/apr_8_opt_fragments_subset/singlepoint_1_CO2 time=70.0 free_energy=-1399.809354993418 pbc="T T T"
C        0.21565338      -0.12029919      -0.01693329      -0.39399617      -1.01997062       0.04059905       1.04696497       0.46716680       0.38920208
O       -0.57450888      -0.95552424      -0.18610193      -4.00513235       2.35167613       0.34483729      -1.41701103      -0.93165799      -0.57144092
O        1.23814790       0.54919526       0.24735228       2.21444724      -3.24179727      -0.11399855      -0.96580455       0.42067317       0.04983605
C        3.60211902       0.69965636       0.29442066       0.89524528       1.03586957       0.05377025       0.73796369      -1.71867633      -0.67261794
C        3.65391211      -0.32502359      -0.43282285       1.68860665       0.66795496      -0.18516531      -0.55286900       2.45061048       1.52627432
H        3.11522868       1.56750194      -0.13556005      -0.30562098      -0.05781772      -0.61317547       0.11433015       0.81843160      -0.12724658
H        3.72096451       0.72942511       1.40591148      -0.54710784       0.24739036      -0.22915773       0.34859603       0.27910141      -0.20930442
H        0.91253011       1.53904713       0.24279775      -0.36111045      -0.25262054       0.30067438       0.61592235      -0.70020581      -0.02184420
H        3.85938777      -1.31261672      -0.77060389       0.81466861       0.26931513       0.40161609       0.07190740      -1.08544335      -0.36285838
9
Lattice="13.0 0.0 0.0 0.0 9.0 0.0 0.0 0.0 9.0" Properties=species:S:1:pos:R:3:momenta:R:3:forces:R:3 EPS_SCF=1e-06 energy=-1399.83475846604 units=gap_units Integrated_spin_density=6.55109e-05 opt_dir=/home/tks32/dft_pbe/apr_8_opt_fragments_subset/singlepoint_1_CO2 time=70.0 free_energy=-1399.83475846604 pbc="T T T"
C        0.21708339      -0.11960919      -0.01641795      -0.39399617      -1.01997062       0.04059905       0.67152779       0.13253225       0.30261429
O       -0.57636827      -0.95677823      -0.18683757      -4.00513235       2.35167613       0.34483729      -1.15886800      -0.66062826      -0.51340595
O        1.23688199       0.54972941       0.24740570       2.21444724      -3.24179727      -0.11399855      -0.78985672       0.39746606       0.08029408
C        3.60306677       0.69739866       0.29352701       0.89524528       1.03586957       0.05377025       0.66570550      -1.34380121      -0.47898642
C        3.65319845      -0.32180648      -0.43083345       1.68860665       0.66795496      -0.18516531      -0.48687336       1.94257890       1.25361080
H        3.11536311       1.56854886      -0.13572751      -0.30562098      -0.05781772      -0.61317547       0.14546092       0.75490307      -0.10188378
H        3.72140483       0.72977781       1.40565299      -0.54710784       0.24739036      -0.22915773       0.34074786       0.27210801      -0.22352141
H        0.91331178       1.53814319       0.24277025      -0.36111045      -0.25262054       0.30067438       0.58875470      -0.61661386      -0.02169337
H        3.85949254      -1.31404198      -0.77107932       0.81466861       0.26931513       0.40161609       0.02340131      -0.87854496      -0.29702824
9
Lattice="13.0 0.0 0.0 0.0 9.0 0.0 0.0 0.0 9.0" Properties=species:S:1:pos:R:3:momenta:R:3:forces:R:3 EPS_SCF=1e-06 energy=-1399.8603722529194 units=gap_units Integrated_spin_density=6.55109e-05 opt_dir=/home/tks32/dft_pbe/apr_8_opt_fragments_subset/singlepoint_1_CO2 time=70.0 free_energy=-1399.8603722529194 pbc="T T T"
C        0.21889986      -0.11888370      -0.01571555      -0.39399617      -1.01997062       0.04059905       0.18657976      -0.29279380       0.19030359
O       -0.57895543      -0.95842770      -0.18790443      -4.00513235       2.35167613       0.34483729      -0.82597712      -0.31458195      -0.43793082
O        1.23511992       0.55052353       0.24751709       2.21444724      -3.24179727      -0.11399855      -0.55374478       0.35326672       0.12005672
C        3.60444462       0.69430722       0.29234506       0.89524528       1.03586957       0.05377025       0.56097494      -0.74120826      -0.15335861
C        3.65217227      -0.31737946      -0.42805458       1.68860665       0.66795496      -0.18516531      -0.39359885       1.16159982       0.81737460
H        3.11559879       1.57008630      -0.13595855      -0.30562098      -0.05781772      -0.61317547       0.18848635       0.66628457      -0.06748697
H        3.72206978       0.73030978       1.40524412      -0.54710784       0.24739036      -0.22915773       0.33027300       0.26243526      -0.23999021
H        0.91447948       1.53684348       0.24272839      -0.36111045      -0.25262054       0.30067438       0.54950242      -0.49734206      -0.02163419
H        3.85960529      -1.31601740      -0.77174139       0.81466861       0.26931513       0.40161609      -0.04249573      -0.59766030      -0.20733412
9
Lattice="13.0 0.0 0.0 0.0 9.0 0.0 0.0 0.0 9.0" Properties=species:S:1:pos:R:3:momenta:R:3:forces:R:3 EPS_SCF=1e-06 energy=-1399.8764797592712 units=gap_units Integrated_spin_density=6.55109e-05 opt_dir=/home/tks32/dft_pbe/apr_8_opt_fragments_subset/singlepoint_1_CO2 time=70.0 free_energy=-1399.8764797592712 pbc="T T T"
C        0.22071374      -0.11851173      -0.01490077      -0.39399617      -1.01997062       0.04059905      -0.31860106      -0.72278711       0.07288958
O       -0.58207649      -0.96021410      -0.18928486      -4.00513235       2.35167613       0.34483729      -0.47556565       0.04305905      -0.35743764
O        1.23300267       0.55157723       0.24773254       2.21444724      -3.24179727      -0.11399855      -0.29334022       0.27269220       0.16110562
C        3.60622301       0.69081364       0.29113414       0.89524528       1.03586957       0.05377025       0.43112536       0.07288673       0.29690498
C        3.65087101      -0.31228044      -0.42476924       1.68860665       0.66795496      -0.18516531      -0.28332800       0.15013873       0.23132630
H        3.11599178       1.57210936      -0.13623125      -0.30562098      -0.05781772      -0.61317547       0.23982220       0.55927068      -0.02734534
H        3.72298517       0.73104040       1.40464584      -0.54710784       0.24739036      -0.22915773       0.31870551       0.25135854      -0.25088067
H        0.91605773       1.53519648       0.24266996      -0.36111045      -0.25262054       0.30067438       0.49894740      -0.34896908      -0.02198564
H        3.85966597      -1.31836881      -0.77253622       0.81466861       0.26931513       0.40161609      -0.11776554      -0.27764975      -0.10457719
9
Lattice="13.0 0.0 0.0 0.0 9.0 0.0 0.0 0.0 9.0" Properties=species:S:1:pos:R:3:momenta:R:3:forces:R:3 EPS_SCF=1e-06 energy=-1399.8798204400296 units=gap_units Integrated_spin_density=6.55109e-05 opt_dir=/home/tks32/dft_pbe/apr_8_opt_fragments_subset/singlepoint_1_CO2 time=70.0 free_energy=-1399.8798204400296 pbc="T T T"
C        0.22195507      -0.11906433      -0.01407798      -0.39399617      -1.01997062       0.04059905      -0.71725948      -1.03803552      -0.01960231
O       -0.58546931      -0.96176899      -0.19096607      -4.00513235       2.35167613       0.34483729      -0.18367408       0.32923527      -0.28889723
O        1.23073701       0.55286036       0.24812424       2.21444724      -3.24179727      -0.11399855      -0.06591969       0.13211879       0.19068087
C        3.60835286       0.68775891       0.29040883       0.89524528       1.03586957       0.05377025       0.29382803       0.93624688       0.75841623
C        3.64935203      -0.30750700      -0.42152842       1.68860665       0.66795496      -0.18516531      -0.17798492      -0.88753916      -0.38427389
H        3.11663990       1.57461675      -0.13651025      -0.30562098      -0.05781772      -0.61317547       0.29436002       0.44407278       0.01476602
H        3.72420030       0.73200655       1.40379938      -0.54710784       0.24739036      -0.22915773       0.30840953       0.24155056      -0.24145085
H        0.91809072       1.53328574       0.24259038      -0.36111045      -0.25262054       0.30067438       0.43797731      -0.18341742      -0.02338006
H        3.85957601      -1.32082595      -0.77337996       0.81466861       0.26931513       0.40161609      -0.18973671       0.02576782      -0.00625879
9
Lattice="13.0 0.0 0.0 0.0 9.0 0.0 0.0 0.0 9.0" Properties=species:S:1:pos:R:3:momenta:R:3:forces:R:3 EPS_SCF=1e-06 energy=-1399.8806133969122 units=gap_units Integrated_spin_density=6.55109e-05 opt_dir=/home/tks32/dft_pbe/apr_8_opt_fragments_subset/singlepoint_1_CO2 time=70.0 free_energy=-1399.8806133969122 pbc="T T T"
C        0.22184300      -0.11922652      -0.01408104      -0.39399617      -1.01997062       0.04059905      -0.69623284      -1.01665839      -0.01448949
O       -0.58549801      -0.96171755      -0.19101121      -4.00513235       2.35167613       0.34483729      -0.19503958       0.31618895      -0.29143318
O        1.23072671       0.55288100       0.24815404       2.21444724      -3.24179727      -0.11399855      -0.07405804       0.12309302       0.18833135
C        3.60839877       0.68790519       0.29052733       0.89524528       1.03586957       0.05377025       0.29439511       0.90628706       0.73253298
C        3.64932422      -0.30764568      -0.42158847       1.68860665       0.66795496      -0.18516531      -0.18056457      -0.85174554      -0.36133441
H        3.11668589       1.57468614      -0.13650794      -0.30562098      -0.05781772      -0.61317547       0.29467958       0.44332916       0.01519883
H        3.72424849       0.73204429       1.40376165      -0.54710784       0.24739036      -0.22915773       0.30870989       0.24199945      -0.23723409
H        0.91815915       1.53325709       0.24258673      -0.36111045      -0.25262054       0.30067438       0.43662572      -0.18263506      -0.02357627
H        3.85954637      -1.32082192      -0.77338093       0.81466861       0.26931513       0.40161609      -0.18851527       0.02014135      -0.00799574
9
Lattice="13.0 0.0 0.0 0.0 9.0 0.0 0.0 0.0 9.0" Properties=species:S:1:pos:R:3:momenta:R:3:forces:R:3 EPS_SCF=1e-06 energy=-1399.882120676837 units=gap_units Integrated_spin_density=6.55109e-05 opt_dir=/home/tks32/dft_pbe/apr_8_opt_fragments_subset/singlepoint_1_CO2 time=70.0 free_energy=-1399.882120676837 pbc="T T T"
C        0.22162219      -0.11954764      -0.01408630      -0.39399617      -1.01997062       0.04059905      -0.65498459      -0.97464712      -0.00445590
O       -0.58555744      -0.96161678      -0.19110204      -4.00513235       2.35167613       0.34483729      -0.21734238       0.29057400      -0.29641165
O        1.23070468       0.55292079       0.24821330       2.21444724      -3.24179727      -0.11399855      -0.08993729       0.10528308       0.18373329
C        3.60849081       0.68819299       0.29076018       0.89524528       1.03586957       0.05377025       0.29541881       0.84803018       0.68203806
C        3.64926809      -0.30791722      -0.42170475       1.68860665       0.66795496      -0.18516531      -0.18557752      -0.78205263      -0.31669367
H        3.11677805       1.57482496      -0.13650325      -0.30562098      -0.05781772      -0.61317547       0.29532281       0.44182324       0.01606005
H        3.72434504       0.73211995       1.40368683      -0.54710784       0.24739036      -0.22915773       0.30929202       0.24287740      -0.22892124
H        0.91829596       1.53319983       0.24257938      -0.36111045      -0.25262054       0.30067438       0.43393938      -0.18104987      -0.02396546
H        3.85948721      -1.32081483      -0.77338319       0.81466861       0.26931513       0.40161609      -0.18613123       0.00916171      -0.01138346
9
Lattice="13.0 0.0 0.0 0.0 9.0 0.0 0.0 0.0 9.0" Properties=species:S:1:pos:R:3:momenta:R:3:forces:R:3 EPS_SCF=1e-06 energy=-1399.8841980048896 units=gap_units Integrated_spin_density=6.55109e-05 opt_dir=/home/tks32/dft_pbe/apr_8_opt_fragments_subset/singlepoint_1_CO2 time=70.0 free_energy=-1399.8841980048896 pbc="T T T"
C        0.22129932      -0.12002138      -0.01409187      -0.39399617      -1.01997062       0.04059905      -0.59515355      -0.91350950       0.01010740
O       -0.58565212      -0.96147101      -0.19123997      -4.00513235       2.35167613       0.34483729      -0.24969810       0.25337210      -0.30363878
O        1.23066780       0.55297655       0.24830145       2.21444724      -3.24179727      -0.11399855      -0.11275400       0.07916302       0.17708961
C        3.60862964       0.68861274       0.29109902       0.89524528       1.03586957       0.05377025       0.29667741       0.76474830       0.60943327
C        3.64918239      -0.30830985      -0.42186944       1.68860665       0.66795496      -0.18516531      -0.19273125      -0.68220575      -0.25279159
H        3.11691697       1.57503364      -0.13649598      -0.30562098      -0.05781772      -0.61317547       0.29629979       0.43951218       0.01734183
H        3.72449056       0.73223408       1.40357610      -0.54710784       0.24739036      -0.22915773       0.31011682       0.24414482      -0.21675596
H        0.91850134       1.53311398       0.24256822      -0.36111045      -0.25262054       0.30067438       0.42994909      -0.17861666      -0.02454153
H        3.85939869      -1.32080671      -0.77338738       0.81466861       0.26931513       0.40161609      -0.18270624      -0.00660851      -0.01624424
9
Lattice="13.0 0.0 0.0 0.0 9.0 0.0 0.0 0.0 9.0" Properties=species:S:1:pos:R:3:momenta:R:3:forces:R:3 EPS_SCF=1e-06 energy=-1399.8866596616274 units=gap_units Integrated_spin_density=6.55109e-05 opt_dir=/home/tks32/dft_pbe/apr_8_opt_fragments_subset/singlepoint_1_CO2 time=70.0 free_energy=-1399.8866596616274 pbc="T T T"
C        0.22088438      -0.12063862      -0.01409477      -0.39399617      -1.01997062       0.04059905      -0.51923817      -0.83554045       0.02860417
O       -0.58578951      -0.96128688      -0.19142756      -4.00513235       2.35167613       0.34483729      -0.29073296       0.20610014      -0.31281175
O        1.23061106       0.55304328       0.24841780       2.21444724      -3.24179727      -0.11399855      -0.14130070       0.04542821       0.16870394
C        3.60881657       0.68915030       0.29153132       0.89524528       1.03586957       0.05377025       0.29784585       0.66115652       0.51833168
C        3.64906499      -0.30880575      -0.42207048       1.68860665       0.66795496      -0.18516531      -0.20159445      -0.55764259      -0.17315322
H        3.11710391       1.57531329      -0.13648581      -0.30562098      -0.05781772      -0.61317547       0.29762786       0.43632555       0.01903335
H        3.72468633       0.73238780       1.40343115      -0.54710784       0.24739036      -0.22915773       0.31112294       0.24574327      -0.20110748
H        0.91877602       1.53299940       0.24255305      -0.36111045      -0.25262054       0.30067438       0.42469746      -0.17526389      -0.02529571
H        3.85928084      -1.32080078      -0.77339455       0.81466861       0.26931513       0.40161609      -0.17842783      -0.02630677      -0.02230499
9
Lattice="13.0 0.0 0.0 0.0 9.0 0.0 0.0 0.0 9.0" Properties=species:S:1:pos:R:3:momenta:R:3:forces:R:3 EPS_SCF=1e-06 energy=-1399.8893103019193 units=gap_units Integrated_spin_density=6.55109e-05 opt_dir=/home/tks32/dft_pbe/apr_8_opt_fragments_subset/singlepoint_1_CO2 time=70.0 free_energy=-1399.8893103019193 pbc="T T T"
C        0.22039080      -0.12138745      -0.01409077      -0.39399617      -1.01997062       0.04059905      -0.43064596      -0.74387048       0.05022074
O       -0.58598042      -0.96107347      -0.19166875      -4.00513235       2.35167613       0.34483729      -0.33853150       0.15086206      -0.32350551
O        1.23052730       0.55311384       0.24856154       2.21444724      -3.24179727      -0.11399855      -0.17396705       0.00499328       0.15898021
C        3.60905372       0.68978707       0.29204030       0.89524528       1.03586957       0.05377025       0.29850998       0.54318770       0.41330467
C        3.64891269      -0.30938108      -0.42229147       1.68860665       0.66795496      -0.18516531      -0.21160750      -0.41527981      -0.08223235
H        3.11734102       1.57566592      -0.13647226      -0.30562098      -0.05781772      -0.61317547       0.29933158       0.43216443       0.02112012
H        3.72493450       0.73258301       1.40325417      -0.54710784       0.24739036      -0.22915773       0.31222439       0.24759655      -0.18247829
H        0.91912148       1.53285572       0.24253355      -0.36111045      -0.25262054       0.30067438       0.41823900      -0.17089562      -0.02621670
H        3.85913350      -1.32080153      -0.77340615       0.81466861       0.26931513       0.40161609      -0.17355294      -0.04875811      -0.02919289
9
Lattice="13.0 0.0 0.0 0.0 9.0 0.0 0.0 0.0 9.0" Properties=species:S:1:pos:R:3:momenta:R:3:forces:R:3 EPS_SCF=1e-06 energy=-1399.8919796950368 units=gap_units Integrated_spin_density=6.55109e-05 opt_dir=/home/tks32/dft_pbe/apr_8_opt_fragments_subset/singlepoint_1_CO2 time=70.0 free_energy=-1399.8919796950368 pbc="T T T"
C        0.21983581      -0.12225274      -0.01407424      -0.39399617      -1.01997062       0.04059905      -0.33378845      -0.64256464       0.07390224
O       -0.58623932      -0.96084261      -0.19196904      -4.00513235       2.35167613       0.34483729      -0.39055586       0.09043278      -0.33515276
O        1.23040716       0.55317863       0.24873180       2.21444724      -3.24179727      -0.11399855      -0.20873232      -0.04098418       0.14842618
C        3.60934394       0.69049989       0.29260470       0.89524528       1.03586957       0.05377025       0.29818765       0.41776181       0.29974228
C        3.64872119      -0.31000569      -0.42251151       1.68860665       0.66795496      -0.18516531      -0.22209255      -0.26330378       0.01474427
H        3.11763141       1.57609446      -0.13645463      -0.30562098      -0.05781772      -0.61317547       0.30144042       0.42690614       0.02358071
H        3.72523817       0.73282239       1.40304795      -0.54710784       0.24739036      -0.22915773       0.31330778       0.24961125      -0.16152324
H        0.91953999       1.53268246       0.24250925      -0.36111045      -0.25262054       0.30067438       0.41064579      -0.16540125      -0.02729010
H        3.85895625      -1.32081475      -0.77342411       0.81466861       0.26931513       0.40161609      -0.16841246      -0.07245813      -0.03642959
9
Lattice="13.0 0.0 0.0 0.0 9.0 0.0 0.0 0.0 9.0" Properties=species:S:1:pos:R:3:momenta:R:3:forces:R:3 EPS_SCF=1e-06 energy=-1399.8945551584566 units=gap_units Integrated_spin_density=6.55109e-05 opt_dir=/home/tks32/dft_pbe/apr_8_opt_fragments_subset/singlepoint_1_CO2 time=70.0 free_energy=-1399.8945551584566 pbc="T T T"
C        0.21924101      -0.12321497      -0.01403827      -0.39399617      -1.01997062       0.04059905      -0.23538194      -0.53703497       0.09821670
O       -0.58658385      -0.96060900      -0.19233500      -4.00513235       2.35167613       0.34483729      -0.44356507       0.02834699      -0.34702326