9
Lattice="13.0 0.0 0.0 0.0 9.0 0.0 0.0 0.0 9.0" Properties=species:S:1:pos:R:3:momenta:R:3:forces:R:3 EPS_SCF=1e-06 energy=-1399.697360079831 units=gap_units Integrated_spin_density=6.55109e-05 opt_dir=/home/tks32/dft_pbe/apr_8_opt_fragments_subset/singlepoint_1_CO2 time=95.0 free_energy=-1399.697360079831 pbc="T T T"
C        0.01877063      -0.20889722       0.12231677      -1.42202717      -0.02006065       1.25782561       3.57939348       0.81814801       0.28182053
O       -1.02038399      -0.61113092      -0.18498397      -1.95824291       2.23237310      -0.55539605      -0.88520148      -0.30306117      -0.09773818
O        1.30775759       0.00714536       0.14845600      -0.87826797      -3.76094864      -0.83089444      -3.41567520      -1.41364194      -0.91960980
C        3.79358006       1.02483232       0.13290281       2.52143847       2.00074424      -0.69947803       2.10448119      -0.79758210       0.88760833
C        3.98984774      -0.26555595      -0.25059337       1.79627809       0.73414173       1.31263776      -0.45741615       2.84908710       0.26774632
H        3.24531997       1.93364134      -0.28694759      -0.21086937      -0.39904364      -0.10366728       0.05522361      -1.96246313       0.20618110
H        4.37243639       1.31540090       1.06403798       0.34655115       0.08270962      -0.05329689      -0.09999014       0.05781004      -0.99171884
H        1.69008051       0.83570315       0.56949455       0.00397155      -0.88863650      -0.19634484      -0.64817746       0.83941241       0.40148093
H        4.48790173      -1.05641125      -0.82193661      -0.19883184       0.01872075      -0.13138584      -0.23263784      -0.08770921      -0.03577039
9
Lattice="13.0 0.0 0.0 0.0 9.0 0.0 0.0 0.0 9.0" Properties=species:S:1:pos:R:3:momenta:R:3:forces:R:3 EPS_SCF=1e-06 energy=-1399.9183293492217 units=gap_units Integrated_spin_density=6.55109e-05 opt_dir=/home/tks32/dft_pbe/apr_8_opt_fragments_subset/singlepoint_1_CO2 time=95.0 free_energy=-1399.9183293492217 pbc="T T T"
C        0.05456456      -0.20071574       0.12513498      -1.42202717      -0.02006065       1.25782561      -3.54473132      -1.38866403      -0.97123874
O       -1.02923600      -0.61416153      -0.18596135      -1.95824291       2.23237310      -0.55539605       2.38732466       1.02809782       0.94805922
O        1.27360084      -0.00699106       0.13925990      -0.87826797      -3.76094864      -0.83089444       0.94637285       0.10292339      -0.43243981
C        3.81462487       1.01685650       0.14177889       2.52143847       2.00074424      -0.69947803       1.25147875      -0.20394823       0.26006942
C        3.98527358      -0.23706508      -0.24791591       1.79627809       0.73414173       1.31263776      -0.14368520       1.53891597      -0.25951055
H        3.24587221       1.91401671      -0.28488578      -0.21086937      -0.39904364      -0.10366728       0.24981797      -1.92359171       0.24878657
H        4.37143649       1.31597900       1.05412079       0.34655115       0.08270962      -0.05329689       0.32245888       0.16644257      -0.34603654
H        1.68359874       0.84409727       0.57350936       0.00397155      -0.88863650      -0.19634484      -0.89338354       0.20800371       0.16539218
H        4.48557535      -1.05728834      -0.82229431      -0.19883184       0.01872075      -0.13138584      -0.57565306       0.47182051       0.38691825
9
Lattice="13.0 0.0 0.0 0.0 9.0 0.0 0.0 0.0 9.0" Properties=species:S:1:pos:R:3:momenta:R:3:forces:R:3 EPS_SCF=1e-06 energy=-1399.9870530070673 units=gap_units Integrated_spin_density=6.55109e-05 opt_dir=/home/tks32/dft_pbe/apr_8_opt_fragments_subset/singlepoint_1_CO2 time=95.0 free_energy=-1399.9870530070673 pbc="T T T"
C        0.04570274      -0.20418740       0.12270688      -1.42202717      -0.02006065       1.25782561      -1.51818501      -0.77307069      -0.61323851
O       -1.02326769      -0.61159129      -0.18359120      -1.95824291       2.23237310      -0.55539605       1.14927738       0.55697176       0.59501257
O        1.27596677      -0.00673375       0.13817880      -0.87826797      -3.76094864      -0.83089444       0.19772096       0.00234673      -0.41563812
C        3.81775357       1.01634663       0.14242907       2.52143847       2.00074424      -0.69947803       1.24309835      -0.24554576       0.20325378
C        3.98491437      -0.23321779      -0.24856468       1.79627809       0.73414173       1.31263776      -0.09983669       1.50218875      -0.27177170
H        3.24649675       1.90920773      -0.28426381      -0.21086937      -0.39904364      -0.10366728       0.21190764      -1.87561524       0.24509164
H        4.37224264       1.31639511       1.05325570       0.34655115       0.08270962      -0.05329689       0.35337833       0.18149192      -0.29160281
H        1.68136528       0.84461728       0.57392284       0.00397155      -0.88863650      -0.19634484      -0.94197367       0.16955843       0.14822361
H        4.48413622      -1.05610879      -0.82132702      -0.19883184       0.01872075      -0.13138584      -0.59538729       0.48167411       0.40066953
9
Lattice="13.0 0.0 0.0 0.0 9.0 0.0 0.0 0.0 9.0" Properties=species:S:1:pos:R:3:momenta:R:3:forces:R:3 EPS_SCF=1e-06 energy=-1400.0431759241385 units=gap_units Integrated_spin_density=6.55109e-05 opt_dir=/home/tks32/dft_pbe/apr_8_opt_fragments_subset/singlepoint_1_CO2 time=95.0 free_energy=-1400.0431759241385 pbc="T T T"
C        0.03336076      -0.20953526       0.11875790      -1.42202717      -0.02006065       1.25782561       1.39578781       0.15250795      -0.04515770
O       -1.01459086      -0.60767620      -0.17974680      -1.95824291       2.23237310      -0.55539605      -0.83219655      -0.19577350       0.03066726
O        1.27866476      -0.00649542       0.13601043      -0.87826797      -3.76094864      -0.83089444      -0.67375989      -0.11443264      -0.38925779
C        3.82414457       1.01518155       0.14359879       2.52143847       2.00074424      -0.69947803       1.21986498      -0.38914363       0.07437350
C        3.98430394      -0.22543490      -0.24993020       1.79627809       0.73414173       1.31263776      -0.03680801       1.48705026      -0.27557640
H        3.24766829       1.89948534      -0.28299915      -0.21086937      -0.39904364      -0.10366728       0.15041323      -1.77067874       0.23442265
H        4.37398449       1.31729158       1.05163846       0.34655115       0.08270962      -0.05329689       0.41402018       0.21048346      -0.18509219
H        1.67664603       0.84557295       0.57472127       0.00397155      -0.88863650      -0.19634484      -1.00589063       0.11836914       0.12742705
H        4.48112865      -1.05366189      -0.81930412      -0.19883184       0.01872075      -0.13138584      -0.63143111       0.50161769       0.42819362
9
Lattice="13.0 0.0 0.0 0.0 9.0 0.0 0.0 0.0 9.0" Properties=species:S:1:pos:R:3:momenta:R:3:forces:R:3 EPS_SCF=1e-06 energy=-1400.0894379707067 units=gap_units Integrated_spin_density=6.55109e-05 opt_dir=/home/tks32/dft_pbe/apr_8_opt_fragments_subset/singlepoint_1_CO2 time=95.0 free_energy=-1400.0894379707067 pbc="T T T"
C        0.02667910      -0.21386473       0.11506063      -1.42202717      -0.02006065       1.25782561       3.14658803       0.73419261       0.33060140
O       -1.00942066      -0.60477344      -0.17618959      -1.95824291       2.23237310      -0.55539605      -2.20133845      -0.70830019      -0.35223120
O        1.27895642      -0.00664380       0.13282453      -0.87826797      -3.76094864      -0.83089444      -0.99406511      -0.14612662      -0.35739049
C        3.83376474       1.01289898       0.14488738       2.52143847       2.00074424      -0.69947803       1.17569044      -0.74972129      -0.14919245
C        3.98363784      -0.21371478      -0.25203304       1.79627809       0.73414173       1.31263776       0.00798562       1.61686680      -0.22861066
H        3.24919965       1.88512026      -0.28111759      -0.21086937      -0.39904364      -0.10366728       0.08835334      -1.60810923       0.21531844
H        4.37686505       1.31876586       1.04959601       0.34655115       0.08270962      -0.05329689       0.49428324       0.24746706      -0.04372446
H        1.66920896       0.84680840       0.57584393       0.00397155      -0.88863650      -0.19634484      -1.05081266       0.08437642       0.11873301
H        4.47641954      -1.04986902      -0.81612568      -0.19883184       0.01872075      -0.13138584      -0.66668442       0.52935445       0.46649641
9
Lattice="13.0 0.0 0.0 0.0 9.0 0.0 0.0 0.0 9.0" Properties=species:S:1:pos:R:3:momenta:R:3:forces:R:3 EPS_SCF=1e-06 energy=-1400.197284170751 units=gap_units Integrated_spin_density=6.55109e-05 opt_dir=/home/tks32/dft_pbe/apr_8_opt_fragments_subset/singlepoint_1_CO2 time=95.0 free_energy=-1400.197284170751 pbc="T T T"
C        0.03014964      -0.21554834       0.11272954      -1.42202717      -0.02006065       1.25782561       2.59135066       0.56770574       0.23053539
O       -1.01140247      -0.60429581      -0.17404975      -1.95824291       2.23237310      -0.55539605      -1.93764566      -0.59759565      -0.27125592
O        1.27622273      -0.00721778       0.12888003      -0.87826797      -3.76094864      -0.83089444      -0.59602703      -0.07766088      -0.33078958
C        3.84596651       1.00858496       0.14559743       2.52143847       2.00074424      -0.69947803       1.02537036      -0.95117593      -0.31666645
C        3.98306242      -0.19829332      -0.25461464       1.79627809       0.73414173       1.31263776       0.07716775       1.53258209      -0.25212621
H        3.25084417       1.86734473      -0.27877520      -0.21086937      -0.39904364      -0.10366728       0.04550438      -1.41433547       0.19405110
H        4.38094735       1.32083859       1.04762601       0.34655115       0.08270962      -0.05329689       0.57016899       0.28000790       0.09325155
H        1.65934838       0.84817462       0.57721220       0.00397155      -0.88863650      -0.19634484      -1.06421689       0.08362128       0.12983721
H        4.47017190      -1.04485992      -0.81185903      -0.19883184       0.01872075      -0.13138584      -0.71167255       0.57685093       0.52316290
9
Lattice="13.0 0.0 0.0 0.0 9.0 0.0 0.0 0.0 9.0" Properties=species:S:1:pos:R:3:momenta:R:3:forces:R:3 EPS_SCF=1e-06 energy=-1400.3219964054695 units=gap_units Integrated_spin_density=6.55109e-05 opt_dir=/home/tks32/dft_pbe/apr_8_opt_fragments_subset/singlepoint_1_CO2 time=95.0 free_energy=-1400.3219964054695 pbc="T T T"
C        0.04153993      -0.21525252       0.11136700      -1.42202717      -0.02006065       1.25782561       0.12522214      -0.19260128      -0.20911258
O       -1.01936748      -0.60577237      -0.17298924      -1.95824291       2.23237310      -0.55539605      -0.40876367      -0.02242971       0.14270632
O        1.27186099      -0.00798211       0.12427470      -0.87826797      -3.76094864      -0.83089444       0.39466932       0.05719765      -0.32174463
C        3.86021918       1.00166794       0.14522626       2.52143847       2.00074424      -0.69947803       0.79328845      -0.23289499      -0.14062966
C        3.98279071      -0.17952483      -0.25774241       1.79627809       0.73414173       1.31263776       0.24271324       0.53966805      -0.59048705
H        3.25246941       1.84683481      -0.27604800      -0.21086937      -0.39904364      -0.10366728       0.02722342      -1.21285808       0.17464643
H        4.38644034       1.32359732       1.04615050       0.34655115       0.08270962      -0.05329689       0.62282188       0.29887213       0.18852077
H        1.64707885       0.84967098       0.57885784       0.00397155      -0.88863650      -0.19634484      -1.03215294       0.12681194       0.16374230
H        4.46227868      -1.03851150      -0.80635008      -0.19883184       0.01872075      -0.13138584      -0.76502185       0.63823428       0.59235810
9
Lattice="13.0 0.0 0.0 0.0 9.0 0.0 0.0 0.0 9.0" Properties=species:S:1:pos:R:3:momenta:R:3:forces:R:3 EPS_SCF=1e-06 energy=-1400.3798934646268 units=gap_units Integrated_spin_density=6.55109e-05 opt_dir=/home/tks32/dft_pbe/apr_8_opt_fragments_subset/singlepoint_1_CO2 time=95.0 free_energy=-1400.3798934646268 pbc="T T T"
C        0.05230272      -0.21577304       0.10928651      -1.42202717      -0.02006065       1.25782561      -2.15595429      -0.87264404      -0.57975331
O       -1.02820575      -0.60719290      -0.17145184      -1.95824291       2.23237310      -0.55539605       1.01426536       0.49335087       0.49724270
O        1.26954761      -0.00843636       0.11881561      -0.87826797      -3.76094864      -0.83089444       1.29862151       0.15068031      -0.32774393
C        3.87628710       0.99449127       0.14431776       2.52143847       2.00074424      -0.69947803       0.47949847       1.43410534       0.45883638
C        3.98353764      -0.16042870      -0.26296947       1.79627809       0.73414173       1.31263776       0.44858473      -1.33529026      -1.23157089
H        3.25404333       1.82342148      -0.27288010      -0.21086937      -0.39904364      -0.10366728      -0.00282698      -0.98155447       0.14909514
H        4.39392821       1.32730104       1.04559263       0.34655115       0.08270962      -0.05329689       0.63752900       0.30145084       0.22743558
H        1.63182002       0.85153573       0.58100778       0.00397155      -0.88863650      -0.19634484      -0.95186973       0.19479146       0.20064631
H        4.45204975      -1.03019079      -0.79897230      -0.19883184       0.01872075      -0.13138584      -0.76784808       0.61510996       0.60581202
9
Lattice="13.0 0.0 0.0 0.0 9.0 0.0 0.0 0.0 9.0" Properties=species:S:1:pos:R:3:momenta:R:3:forces:R:3 EPS_SCF=1e-06 energy=-1400.4403126666007 units=gap_units Integrated_spin_density=6.55109e-05 opt_dir=/home/tks32/dft_pbe/apr_8_opt_fragments_subset/singlepoint_1_CO2 time=95.0 free_energy=-1400.4403126666007 pbc="T T T"
C        0.05436071      -0.21932923       0.10536270      -1.42202717      -0.02006065       1.25782561      -2.27323778      -0.91310400      -0.61374722
O       -1.03257137      -0.60672573      -0.16830877      -1.95824291       2.23237310      -0.55539605       1.27197626       0.57506973       0.53253031
O        1.27206054      -0.00831202       0.11274276      -0.87826797      -3.76094864      -0.83089444       1.25964597       0.09700879      -0.32108999
C        3.89244485       0.99310663       0.14512362       2.52143847       2.00074424      -0.69947803       0.24517223       2.20281740       0.83763588
C        3.98579712      -0.14796691      -0.27203156       1.79627809       0.73414173       1.31263776       0.44577461      -2.18931120      -1.46777279
H        3.25544985       1.79887641      -0.26950145      -0.21086937      -0.39904364      -0.10366728      -0.10839006      -0.66878430       0.10215424
H        4.40292308       1.33170102       1.04589530       0.34655115       0.08270962      -0.05329689       0.64766440       0.31574981       0.26629615
H        1.61471904       0.85390324       0.58365269       0.00397155      -0.88863650      -0.19634484      -0.85098377       0.22410196       0.19650504
H        4.44012680      -1.02052568      -0.79018873      -0.19883184       0.01872075      -0.13138584      -0.63762185       0.35645179       0.46748837
9
Lattice="13.0 0.0 0.0 0.0 9.0 0.0 0.0 0.0 9.0" Properties=species:S:1:pos:R:3:momenta:R:3:forces:R:3 EPS_SCF=1e-06 energy=-1400.5457271172882 units=gap_units Integrated_spin_density=6.55109e-05 opt_dir=/home/tks32/dft_pbe/apr_8_opt_fragments_subset/singlepoint_1_CO2 time=95.0 free_energy=-1400.5457271172882 pbc="T T T"
C        0.04734611      -0.22648582       0.09903419      -1.42202717      -0.02006065       1.25782561      -0.11867167      -0.29491494      -0.32185698
O       -1.03182833      -0.60397331      -0.16307659      -1.95824291       2.23237310      -0.55539605       0.26998696       0.21136350       0.25386640
O        1.27956425      -0.00780264       0.10545207      -0.87826797      -3.76094864      -0.83089444       0.27345241      -0.08665290      -0.27742214
C        3.90941730       1.00050744       0.14925689       2.52143847       2.00074424      -0.69947803       0.18077578       0.66826673       0.41621269
C        3.98980908      -0.14434755      -0.28684768       1.79627809       0.73414173       1.31263776       0.09343316      -0.55518760      -0.68322463
H        3.25641070       1.77191369      -0.26574980      -0.21086937      -0.39904364      -0.10366728      -0.33443008      -0.19886313       0.02162351
H        4.41440700       1.33731432       1.04725532       0.34655115       0.08270962      -0.05329689       0.67664096       0.36286189       0.35215164
H        1.59440045       0.85713944       0.58705363       0.00397155      -0.88863650      -0.19634484      -0.73320020       0.18072578       0.13058537
H        4.42578407      -1.00953783      -0.77963145      -0.19883184       0.01872075      -0.13138584      -0.30798733      -0.28759933       0.10806414
9
Lattice="13.0 0.0 0.0 0.0 9.0 0.0 0.0 0.0 9.0" Properties=species:S:1:pos:R:3:momenta:R:3:forces:R:3 EPS_SCF=1e-06 energy=-1400.5594893770876 units=gap_units Integrated_spin_density=6.55109e-05 opt_dir=/home/tks32/dft_pbe/apr_8_opt_fragments_subset/singlepoint_1_CO2 time=95.0 free_energy=-1400.5594893770876 pbc="T T T"
C        0.03960850      -0.23553063       0.09063179      -1.42202717      -0.02006065       1.25782561       2.46918285       0.45945058       0.05076659
O       -1.02930499      -0.59984647      -0.15621076      -1.95824291       2.23237310      -0.55539605      -1.17106008      -0.28740943      -0.10971256
O        1.28881101      -0.00787131       0.09639013      -0.87826797      -3.76094864      -0.83089444      -0.71086045      -0.22605076      -0.19097418
C        3.92743516       1.01226531       0.15610808       2.52143847       2.00074424      -0.69947803       0.15660751      -1.54148704      -0.29752068
C        3.99440372      -0.14443493      -0.30605387       1.79627809       0.73414173       1.31263776      -0.38651958       1.96139140       0.51538342
H        3.25514957       1.74387476      -0.26188843      -0.21086937      -0.39904364      -0.10366728      -0.58398593       0.31624199      -0.05770804
H        4.43026707       1.34527926       1.05093396       0.34655115       0.08270962      -0.05329689       0.67572437       0.40455524       0.41492427
H        1.56941001       0.86154298       0.59128858       0.00397155      -0.88863650      -0.19634484      -0.57043202       0.07546477       0.02183290
H        4.40953058      -1.00055126      -0.76845292      -0.19883184       0.01872075      -0.13138584       0.12134332      -1.16215675      -0.34699174
9
Lattice="13.0 0.0 0.0 0.0 9.0 0.0 0.0 0.0 9.0" Properties=species:S:1:pos:R:3:momenta:R:3:forces:R:3 EPS_SCF=1e-06 energy=-1400.574699591743 units=gap_units Integrated_spin_density=6.55109e-05 opt_dir=/home/tks32/dft_pbe/apr_8_opt_fragments_subset/singlepoint_1_CO2 time=95.0 free_energy=-1400.574699591743 pbc="T T T"
C        0.04186796      -0.23511020       0.09067825      -1.42202717      -0.02006065       1.25782561       2.00590108       0.32078676      -0.02037525
O       -1.03037659      -0.60010947      -0.15631116      -1.95824291       2.23237310      -0.55539605      -0.87635571      -0.18649076      -0.04139056
O        1.28816053      -0.00807816       0.09621538      -0.87826797      -3.76094864      -0.83089444      -0.55470812      -0.20064434      -0.19386586
C        3.92757846       1.01085476       0.15583583       2.52143847       2.00074424      -0.69947803       0.13476827      -1.26049446      -0.18697619
C        3.99405003      -0.14264013      -0.30558226       1.79627809       0.73414173       1.31263776      -0.32538482       1.63715864       0.37201518
H        3.25461519       1.74416414      -0.26194123      -0.21086937      -0.39904364      -0.10366728      -0.55014052       0.28477485      -0.04337629
H        4.43088540       1.34564946       1.05131364       0.34655115       0.08270962      -0.05329689       0.65425105       0.38725739       0.37948880
H        1.56888802       0.86161203       0.59130856       0.00397155      -0.88863650      -0.19634484      -0.56224857       0.08529249       0.02970069
H        4.40964161      -1.00161470      -0.76877044      -0.19883184       0.01872075      -0.13138584       0.07391735      -1.06764056      -0.29522052
9
Lattice="13.0 0.0 0.0 0.0 9.0 0.0 0.0 0.0 9.0" Properties=species:S:1:pos:R:3:momenta:R:3:forces:R:3 EPS_SCF=1e-06 energy=-1400.5952263989916 units=gap_units Integrated_spin_density=6.55109e-05 opt_dir=/home/tks32/dft_pbe/apr_8_opt_fragments_subset/singlepoint_1_CO2 time=95.0 free_energy=-1400.5952263989916 pbc="T T T"
C        0.04595790      -0.23440295       0.09069917      -1.42202717      -0.02006065       1.25782561       1.17655029       0.07529108      -0.14337342
O       -1.03223945      -0.60053735      -0.15644395      -1.95824291       2.23237310      -0.55539605      -0.36384039      -0.01173842       0.07638309
O        1.28700642      -0.00847002       0.09585935      -0.87826797      -3.76094864      -0.83089444      -0.26106091      -0.15245771      -0.19896528
C        3.92784560       1.00829301       0.15539912       2.52143847       2.00074424      -0.69947803       0.09243494      -0.70644688       0.03061017
C        3.99339813      -0.13934641      -0.30477643       1.79627809       0.73414173       1.31263776      -0.21235012       1.00476196       0.09434763
H        3.25357024       1.74471653      -0.26203323      -0.21086937      -0.39904364      -0.10366728      -0.48775969       0.22645602      -0.01665873
H        4.43211263       1.34637964       1.05204441       0.34655115       0.08270962      -0.05329689       0.61439602       0.35521780       0.31455334
H        1.56784183       0.86176163       0.59135699       0.00397155      -0.88863650      -0.19634484      -0.54600613       0.10331915       0.04398227
H        4.40981732      -1.00366634      -0.76935886      -0.19883184       0.01872075      -0.13138584      -0.01236402      -0.89440300      -0.20087909
9
Lattice="13.0 0.0 0.0 0.0 9.0 0.0 0.0 0.0 9.0" Properties=species:S:1:pos:R:3:momenta:R:3:forces:R:3 EPS_SCF=1e-06 energy=-1400.608375746205 units=gap_units Integrated_spin_density=6.55109e-05 opt_dir=/home/tks32/dft_pbe/apr_8_opt_fragments_subset/singlepoint_1_CO2 time=95.0 free_energy=-1400.608375746205 pbc="T T T"
C        0.05108040      -0.23367417       0.09054233      -1.42202717      -0.02006065       1.25782561       0.16737921      -0.21834728      -0.28463173
O       -1.03436182      -0.60093683      -0.15646987      -1.95824291       2.23237310      -0.55539605       0.23072462       0.18942090       0.21083479
O        1.28564785      -0.00900950       0.09529515      -0.87826797      -3.76094864      -0.83089444       0.12326395      -0.08786917      -0.20443423
C        3.92819928       1.00512187       0.15504358       2.52143847       2.00074424      -0.69947803       0.03386965       0.05994712       0.32975655
C        3.99255124      -0.13515100      -0.30393558       1.79627809       0.73414173       1.31263776      -0.06687847       0.14041657      -0.28229733
H        3.25203217       1.74549115      -0.26213643      -0.21086937      -0.39904364      -0.10366728      -0.40586245       0.14946295       0.01941974
H        4.43396992       1.34747204       1.05308749       0.34655115       0.08270962      -0.05329689       0.56170616       0.31320006       0.23088720
H        1.56623127       0.86202285       0.59145447       0.00397155      -0.88863650      -0.19634484      -0.52247072       0.12554226       0.06136049
H        4.40996032      -1.00660867      -0.77013457      -0.19883184       0.01872075      -0.13138584      -0.12173195      -0.67177341      -0.08089549
9
Lattice="13.0 0.0 0.0 0.0 9.0 0.0 0.0 0.0 9.0" Properties=species:S:1:pos:R:3:momenta:R:3:forces:R:3 EPS_SCF=1e-06 energy=-1400.6101878444306 units=gap_units Integrated_spin_density=6.55109e-05 opt_dir=/home/tks32/dft_pbe/apr_8_opt_fragments_subset/singlepoint_1_CO2 time=95.0 free_energy=-1400.6101878444306 pbc="T T T"
C        0.05595245      -0.23335979       0.08995598      -1.42202717      -0.02006065       1.25782561      -0.71481593      -0.46918174      -0.39731378
O       -1.03591108      -0.60100009      -0.15616343      -1.95824291       2.23237310      -0.55539605       0.71316297       0.35027369       0.31661739
O        1.28461794      -0.00963246       0.09446761      -0.87826797      -3.76094864      -0.83089444       0.49280968      -0.02127441      -0.20620697
C        3.92857057       1.00236161       0.15523937       2.52143847       2.00074424      -0.69947803      -0.02864589       0.81250055       0.61645920
C        3.99168443      -0.13115550      -0.30362036       1.79627809       0.73414173       1.31263776       0.07350400      -0.70390740      -0.64886286
H        3.25001310       1.74642207      -0.26219895      -0.21086937      -0.39904364      -0.10366728      -0.31780689       0.06698638       0.06081875
H        4.43652004       1.34894507       1.05438740       0.34655115       0.08270962      -0.05329689       0.50528404       0.26939329       0.14579499
H        1.56396456       0.86245431       0.59163817       0.00397155      -0.88863650      -0.19634484      -0.49462074       0.14338757       0.07519952
H        4.40989861      -1.01030749      -0.77095923      -0.19883184       0.01872075      -0.13138584      -0.22887124      -0.44817794       0.03749377
9
Lattice="13.0 0.0 0.0 0.0 9.0 0.0 0.0 0.0 9.0" Properties=species:S:1:pos:R:3:momenta:R:3:forces:R:3 EPS_SCF=1e-06 energy=-1400.611277164217 units=gap_units Integrated_spin_density=6.55109e-05 opt_dir=/home/tks32/dft_pbe/apr_8_opt_fragments_subset/singlepoint_1_CO2 time=95.0 free_energy=-1400.611277164217 pbc="T T T"
C        0.05578893      -0.23346713       0.08986509      -1.42202717      -0.02006065       1.25782561      -0.66347055      -0.45423414      -0.38961333
O       -1.03574793      -0.60091996      -0.15609100      -1.95824291       2.23237310      -0.55539605       0.68075510       0.33920603       0.30910655
O        1.28473068      -0.00963733       0.09442043      -0.87826797      -3.76094864      -0.83089444       0.47469145      -0.02320142      -0.20507083
C        3.92856401       1.00254748       0.15538040       2.52143847       2.00074424      -0.69947803      -0.02732956       0.76655395       0.59595892
C        3.99170124      -0.13131653      -0.30376880       1.79627809       0.73414173       1.31263776       0.06844559      -0.65449812      -0.62768254
H        3.24994040       1.74643740      -0.26218503      -0.21086937      -0.39904364      -0.10366728      -0.31780716       0.06734682       0.06144779
H        4.43663564       1.34900670       1.05442076       0.34655115       0.08270962      -0.05329689       0.50564591       0.27000544       0.14713726
H        1.56385141       0.86248711       0.59165537       0.00397155      -0.88863650      -0.19634484      -0.49456398       0.14149327       0.07377685
H        4.40984625      -1.01041001      -0.77095065      -0.19883184       0.01872075      -0.13138584      -0.22636679      -0.45267183       0.03493935
9
Lattice="13.0 0.0 0.0 0.0 9.0 0.0 0.0 0.0 9.0" Properties=species:S:1:pos:R:3:momenta:R:3:forces:R:3 EPS_SCF=1e-06 energy=-1400.6132959341817 units=gap_units Integrated_spin_density=6.55109e-05 opt_dir=/home/tks32/dft_pbe/apr_8_opt_fragments_subset/singlepoint_1_CO2 time=95.0 free_energy=-1400.6132959341817 pbc="T T T"
C        0.05547421      -0.23367843       0.08968490      -1.42202717      -0.02006065       1.25782561      -0.56358282      -0.42512685      -0.37457747
O       -1.03542919      -0.60076218      -0.15594775      -1.95824291       2.23237310      -0.55539605       0.61747878       0.31759867       0.29444111
O        1.28495202      -0.00964757       0.09432619      -0.87826797      -3.76094864      -0.83089444       0.43962753      -0.02690662      -0.20284962
C        3.92855121       1.00290834       0.15565782       2.52143847       2.00074424      -0.69947803      -0.02484605       0.67824011       0.55644910
C        3.99173366      -0.13162674      -0.30406090       1.79627809       0.73414173       1.31263776       0.05874045      -0.55948708      -0.58691139
H        3.24979471       1.74646820      -0.26215699      -0.21086937      -0.39904364      -0.10366728      -0.31770498       0.06796397       0.06273042
H        4.43686736       1.34913035       1.05448793       0.34655115       0.08270962      -0.05329689       0.50626925       0.27114102       0.14964230
H        1.56362468       0.86255236       0.59168949       0.00397155      -0.88863650      -0.19634484      -0.49440289       0.13780150       0.07100333
H        4.40974197      -1.01061660      -0.77093411      -0.19883184       0.01872075      -0.13138584      -0.22157927      -0.46122471       0.03007223
9
Lattice="13.0 0.0 0.0 0.0 9.0 0.0 0.0 0.0 9.0" Properties=species:S:1:pos:R:3:momenta:R:3:forces:R:3 EPS_SCF=1e-06 energy=-1400.615962047488 units=gap_units Integrated_spin_density=6.55109e-05 opt_dir=/home/tks32/dft_pbe/apr_8_opt_fragments_subset/singlepoint_1_CO2 time=95.0 free_energy=-1400.615962047488 pbc="T T T"
C        0.05503369      -0.23398724       0.08941820      -1.42202717      -0.02006065       1.25782561      -0.42083702      -0.38346257      -0.35295334
O       -1.03497000      -0.60053155      -0.15573666      -1.95824291       2.23237310      -0.55539605       0.52649700       0.28653379       0.27334982