9
Lattice="13.0 0.0 0.0 0.0 9.0 0.0 0.0 0.0 9.0" Properties=species:S:1:pos:R:3:momenta:R:3:forces:R:3 EPS_SCF=1e-06 energy=-1396.4822765857616 units=gap_units Integrated_spin_density=6.55109e-05 opt_dir=/home/tks32/dft_pbe/apr_8_opt_fragments_subset/singlepoint_1_CO2 time=25.0 free_energy=-1396.4822765857616 pbc="T T T"
C        0.49923475      -0.00897093      -0.00585147      -0.31770586       0.25132962       0.34276347      -3.48841018       3.31425812       0.97358755
O        0.53432596      -1.13053690      -0.33065476       1.00383104       1.09143062       0.28473266      -4.93887285      -2.88026501      -0.28213099
O        0.78893790       1.14019015       0.34274010       2.43136289      -1.85665056      -0.39187990      -1.77117898      -1.54785936      -0.31094234
C        3.52373466       0.37413418       0.23952577      -2.22057090       0.13577677       0.45818050       4.74269407      -2.86637769       0.43911985
C        2.53254947      -0.41147160      -0.26187926       0.14724081       0.00300996      -0.50332956       7.46743104       0.25584930       0.27589837
H        3.25110911       1.34988120       0.50056618      -0.58911413       0.24785332      -0.22211539       0.80658627       1.17400451       0.35696335
H        4.55825079      -0.20774179       0.45660308      -0.20926242      -0.21243014       0.02755280      -1.66488553       2.14337865      -0.05481169
H        1.96771306       0.37445619       0.14932653      -0.18343484       0.52544953       0.14742926      -1.21413213       1.74431376       0.46714285
H        2.43201853      -1.11801707      -0.96223353      -0.06234660      -0.18576911      -0.14333385       0.06076828      -1.33730229      -1.86482696
9
Lattice="13.0 0.0 0.0 0.0 9.0 0.0 0.0 0.0 9.0" Properties=species:S:1:pos:R:3:momenta:R:3:forces:R:3 EPS_SCF=1e-06 energy=-1397.5358814035685 units=gap_units Integrated_spin_density=6.55109e-05 opt_dir=/home/tks32/dft_pbe/apr_8_opt_fragments_subset/singlepoint_1_CO2 time=25.0 free_energy=-1397.5358814035685 pbc="T T T"
C        0.46435065       0.02417165       0.00388441      -0.31770586       0.25132962       0.34276347      -3.06968228      -4.43674714      -1.28776574
O        0.48493723      -1.15933955      -0.33347607       1.00383104       1.09143062       0.28473266      -3.13690386       3.00260547       1.13927574
O        0.77122611       1.12471156       0.33963068       2.43136289      -1.85665056      -0.39187990      -0.59408088       0.58193744       0.29943282
C        3.57116160       0.34547040       0.24391697      -2.22057090       0.13577677       0.45818050       2.48350300      -0.29450383       0.68991723
C        2.60722378      -0.40891311      -0.25912028       0.14724081       0.00300996      -0.50332956       3.38188604       0.52422411       0.06907938
H        3.25917497       1.36162125       0.50413581      -0.58911413       0.24785332      -0.22211539       1.39482962      -0.21708031      -0.01952885
H        4.54160193      -0.18630800       0.45605496      -0.20926242      -0.21243014       0.02755280       0.04029472       1.29034236       0.26175920
H        1.95557174       0.39189933       0.15399796      -0.18343484       0.52544953       0.14742926      -0.32611341      -0.23869495      -0.52803445
H        2.43262621      -1.13139009      -0.98088180      -0.06234660      -0.18576911      -0.14333385      -0.17373295      -0.21208315      -0.62413533
9
Lattice="13.0 0.0 0.0 0.0 9.0 0.0 0.0 0.0 9.0" Properties=species:S:1:pos:R:3:momenta:R:3:forces:R:3 EPS_SCF=1e-06 energy=-1398.157141831687 units=gap_units Integrated_spin_density=6.55109e-05 opt_dir=/home/tks32/dft_pbe/apr_8_opt_fragments_subset/singlepoint_1_CO2 time=25.0 free_energy=-1398.157141831687 pbc="T T T"
C        0.39764578       0.00296607      -0.00216590      -0.31770586       0.25132962       0.34276347      -1.26863624      -1.43406800      -0.34972139
O        0.40440498      -1.15072432      -0.32291067       1.00383104       1.09143062       0.28473266      -2.24664879       1.82952120       0.61581434
O        0.74845205       1.11747459       0.34027644       2.43136289      -1.85665056      -0.39187990      -0.21055365      -1.70110967      -0.46533473
C        3.64241246       0.31628546       0.25580485      -2.22057090       0.13577677       0.45818050      -2.25180794       2.41026292      -0.09495872
C        2.71333097      -0.40058055      -0.25584260       0.14724081       0.00300996      -0.50332956      -0.34883086       0.94943008      -0.19213559
H        3.28247835       1.36969031       0.50712385      -0.58911413       0.24785332      -0.22211539       2.00995099      -1.13384812      -0.20357781
H        4.52708146      -0.15217537       0.45857256      -0.20926242      -0.21243014       0.02755280       3.86705958      -0.60825001       1.07642932
H        1.94089341       0.40485255       0.15212850      -0.18343484       0.52544953       0.14742926       0.19631374      -1.44806553      -1.17945609
H        2.43117476      -1.14586531      -1.00484439      -0.06234660      -0.18576911      -0.14333385       0.25315319       1.13612714       0.79294067
9
Lattice="13.0 0.0 0.0 0.0 9.0 0.0 0.0 0.0 9.0" Properties=species:S:1:pos:R:3:momenta:R:3:forces:R:3 EPS_SCF=1e-06 energy=-1398.282137429861 units=gap_units Integrated_spin_density=6.55109e-05 opt_dir=/home/tks32/dft_pbe/apr_8_opt_fragments_subset/singlepoint_1_CO2 time=25.0 free_energy=-1398.282137429861 pbc="T T T"
C        0.39447419      -0.00061910      -0.00304020      -0.31770586       0.25132962       0.34276347      -1.26075815      -0.85035412      -0.18082523
O        0.39878836      -1.14615051      -0.32137114       1.00383104       1.09143062       0.28473266      -2.24283485       1.16363306       0.43196583
O        0.74792567       1.11322181       0.33911310       2.43136289      -1.85665056      -0.39187990      -0.20769823      -1.62816539      -0.44539342
C        3.63678294       0.32231112       0.25556746      -2.22057090       0.13577677       0.45818050      -1.41301669       1.78710435       0.00628809
C        2.71245889      -0.39820697      -0.25632294       0.14724081       0.00300996      -0.50332956      -0.28362270       0.93725279      -0.17019151
H        3.28750322       1.36685569       0.50661491      -0.58911413       0.24785332      -0.22211539       1.94242591      -0.85531124      -0.13241251
H        4.53674911      -0.15369599       0.46126363      -0.20926242      -0.21243014       0.02755280       3.08408186      -0.25023995       0.89814354
H        1.94138420       0.40123239       0.14917986      -0.18343484       0.52544953       0.14742926       0.12534214      -1.36672584      -1.13585324
H        2.43180764      -1.14302499      -1.00286204      -0.06234660      -0.18576911      -0.14333385       0.25608071       1.06280635       0.72827845
9
Lattice="13.0 0.0 0.0 0.0 9.0 0.0 0.0 0.0 9.0" Properties=species:S:1:pos:R:3:momenta:R:3:forces:R:3 EPS_SCF=1e-06 energy=-1398.4531710159993 units=gap_units Integrated_spin_density=6.55109e-05 opt_dir=/home/tks32/dft_pbe/apr_8_opt_fragments_subset/singlepoint_1_CO2 time=25.0 free_energy=-1398.4531710159993 pbc="T T T"
C        0.38808753      -0.00622817      -0.00433369      -0.31770586       0.25132962       0.34276347      -1.25661425       0.04936066       0.07868410
O        0.38744971      -1.13877397      -0.31877533       1.00383104       1.09143062       0.28473266      -2.23944737       0.03703863       0.11953847
O        0.74687002       1.10483273       0.33681825       2.43136289      -1.85665056      -0.39187990      -0.20193961      -1.40097216      -0.38047018
C        3.62775756       0.33274109       0.25537142      -2.22057090       0.13577677       0.45818050      -0.04160644       0.71785140       0.14333583
C        2.71087941      -0.39344488      -0.25723207       0.14724081       0.00300996      -0.50332956      -0.16858086       0.89418447      -0.13920525
H        3.29746766       1.36190823       0.50578588      -0.58911413       0.24785332      -0.22211539       1.81446177      -0.31594879       0.00861038
H        4.55409058      -0.15576565       0.46620190      -0.20926242      -0.21243014       0.02755280       1.84038001       0.31043034       0.61553737
H        1.94217707       0.39414512       0.14334379      -0.18343484       0.52544953       0.14742926      -0.00865873      -1.20955312      -1.04926789
H        2.43309469      -1.13749107      -0.99903752      -0.06234660      -0.18576911      -0.14333385       0.26200547       0.91760856       0.60323717
9
Lattice="13.0 0.0 0.0 0.0 9.0 0.0 0.0 0.0 9.0" Properties=species:S:1:pos:R:3:momenta:R:3:forces:R:3 EPS_SCF=1e-06 energy=-1398.6006689645174 units=gap_units Integrated_spin_density=6.55109e-05 opt_dir=/home/tks32/dft_pbe/apr_8_opt_fragments_subset/singlepoint_1_CO2 time=25.0 free_energy=-1398.6006689645174 pbc="T T T"
C        0.37827653      -0.01111673      -0.00524342      -0.31770586       0.25132962       0.34276347      -1.27709487       0.66911724       0.25641200
O        0.37000414      -1.13201532      -0.31605260       1.00383104       1.09143062       0.28473266      -2.23941519      -1.04752255      -0.18476291
O        0.74526701       1.09275280       0.33352271       2.43136289      -1.85665056      -0.39187990      -0.19088736      -0.89610849      -0.23193121
C        3.61950019       0.34444909       0.25565843      -2.22057090       0.13577677       0.45818050       1.35942150      -0.46592740       0.23294466
C        2.70891280      -0.38626784      -0.25850037       0.14724081       0.00300996      -0.50332956      -0.01363375       0.80241774      -0.11029562
H        3.31230233       1.35643396       0.50506760      -0.58911413       0.24785332      -0.22211539       1.64684492       0.38056891       0.19629016
H        4.57564839      -0.15662462       0.47263656      -0.20926242      -0.21243014       0.02755280       0.62665610       0.83567807       0.33624287
H        1.94286266       0.38385574       0.13469875      -0.18343484       0.52544953       0.14742926      -0.18232311      -0.98133200      -0.91998343
H        2.43510017      -1.12954364      -0.99364502      -0.06234660      -0.18576911      -0.14333385       0.27043176       0.70310849       0.42508348
9
Lattice="13.0 0.0 0.0 0.0 9.0 0.0 0.0 0.0 9.0" Properties=species:S:1:pos:R:3:momenta:R:3:forces:R:3 EPS_SCF=1e-06 energy=-1398.7323957086094 units=gap_units Integrated_spin_density=6.55109e-05 opt_dir=/home/tks32/dft_pbe/apr_8_opt_fragments_subset/singlepoint_1_CO2 time=25.0 free_energy=-1398.7323957086094 pbc="T T T"
C        0.36495310      -0.01316211      -0.00515997      -0.31770586       0.25132962       0.34276347      -1.32892961       0.42546012       0.18555274
O        0.34642361      -1.12961831      -0.31425224       1.00383104       1.09143062       0.28473266      -2.23934610      -1.48282820      -0.31422020
O        0.74315265       1.07872786       0.32974067       2.43136289      -1.85665056      -0.39187990      -0.17328855      -0.12323565      -0.00003168
C        3.61685177       0.35334690       0.25673637      -2.22057090       0.13577677       0.45818050       2.34928997      -1.36281451       0.25389468
C        2.70709488      -0.37698514      -0.26002993       0.14724081       0.00300996      -0.50332956       0.17379815       0.66418448      -0.08715165
H        3.33144805       1.35284617       0.50511180      -0.58911413       0.24785332      -0.22211539       1.48431912       0.99450822       0.36763427
H        4.59725535      -0.15445732       0.47961084      -0.20926242      -0.21243014       0.02755280      -0.17924559       1.14528850       0.13838177
H        1.94283818       0.37114243       0.12368119      -0.18343484       0.52544953       0.14742926      -0.37021986      -0.69486060      -0.75465866
H        2.43785664      -1.11991703      -0.98729608      -0.06234660      -0.18576911      -0.14333385       0.28362248       0.43429764       0.21059872
9
Lattice="13.0 0.0 0.0 0.0 9.0 0.0 0.0 0.0 9.0" Properties=species:S:1:pos:R:3:momenta:R:3:forces:R:3 EPS_SCF=1e-06 energy=-1398.8928042257246 units=gap_units Integrated_spin_density=6.55109e-05 opt_dir=/home/tks32/dft_pbe/apr_8_opt_fragments_subset/singlepoint_1_CO2 time=25.0 free_energy=-1398.8928042257246 pbc="T T T"
C        0.34827735      -0.01350315      -0.00443077      -0.31770586       0.25132962       0.34276347      -1.34710719      -0.45809518      -0.06701713
O        0.31730713      -1.13268818      -0.31373958       1.00383104       1.09143062       0.28473266      -2.23902779      -1.19465356      -0.24725026
O        0.74063886       1.06567098       0.32633672       2.43136289      -1.85665056      -0.39187990      -0.19038045       0.59365220       0.21815850
C        3.62274976       0.35655081       0.25860153      -2.22057090       0.13577677       0.45818050       2.78258059      -1.68315469       0.25980911
C        2.70607141      -0.36628938      -0.26171375       0.14724081       0.00300996      -0.50332956       0.37115500       0.49971885      -0.06973225
H        3.35391164       1.35312294       0.50644754      -0.58911413       0.24785332      -0.22211539       1.36107537       1.26290875       0.44815573
H        4.61606974      -0.14846944       0.48637550      -0.20926242      -0.21243014       0.02755280      -0.49026614       1.20203502       0.03651133
H        1.94151107       0.35725097       0.11110511      -0.18343484       0.52544953       0.14742926      -0.55782371      -0.36544631      -0.56522783
H        2.44133727      -1.10972212      -0.98083965      -0.06234660      -0.18576911      -0.14333385       0.30979433       0.14303492      -0.01340722
9
Lattice="13.0 0.0 0.0 0.0 9.0 0.0 0.0 0.0 9.0" Properties=species:S:1:pos:R:3:momenta:R:3:forces:R:3 EPS_SCF=1e-06 energy=-1399.103791216883 units=gap_units Integrated_spin_density=6.55109e-05 opt_dir=/home/tks32/dft_pbe/apr_8_opt_fragments_subset/singlepoint_1_CO2 time=25.0 free_energy=-1399.103791216883 pbc="T T T"
C        0.32847391      -0.01544075      -0.00401305      -0.31770586       0.25132962       0.34276347      -1.19486113      -1.12073898      -0.25132450
O        0.28313208      -1.13970364      -0.31415833       1.00383104       1.09143062       0.28473266      -2.21852320      -0.61861203      -0.09656520
O        0.73769875       1.05603301       0.32404973       2.43136289      -1.85665056      -0.39187990      -0.33879008       0.78428884       0.27708999
C        3.63796305       0.35344285       0.26120501      -2.22057090       0.13577677       0.45818050       2.70324553      -1.34519773       0.29136554
C        2.70647148      -0.35488435      -0.26347741       0.14724081       0.00300996      -0.50332956       0.54256286       0.33596896      -0.05664424
H        3.37897386       1.35786758       0.50924500      -0.58911413       0.24785332      -0.22211539       1.27500792       1.08461824       0.40676212
H        4.63125751      -0.13880150       0.49259367      -0.20926242      -0.21243014       0.02755280      -0.40131587       1.02018289       0.01128347
H        1.93833099       0.34344778       0.09777461      -0.18343484       0.52544953       0.14742926      -0.72292606      -0.00719045      -0.36409397
H        2.44557260      -1.10003755      -0.97507659      -0.06234660      -0.18576911      -0.14333385       0.35560003      -0.13331975      -0.21787321
9
Lattice="13.0 0.0 0.0 0.0 9.0 0.0 0.0 0.0 9.0" Properties=species:S:1:pos:R:3:momenta:R:3:forces:R:3 EPS_SCF=1e-06 energy=-1399.3477020722366 units=gap_units Integrated_spin_density=6.55109e-05 opt_dir=/home/tks32/dft_pbe/apr_8_opt_fragments_subset/singlepoint_1_CO2 time=25.0 free_energy=-1399.3477020722366 pbc="T T T"
C        0.30617524      -0.02138252      -0.00457848      -0.31770586       0.25132962       0.34276347      -0.80178334      -0.96592629      -0.19683322
O        0.24406465      -1.14833468      -0.31489690       1.00383104       1.09143062       0.28473266      -2.20648938      -0.20347880       0.01095526
O        0.73378366       1.05029653       0.32302934       2.43136289      -1.85665056      -0.39187990      -0.67289770       0.26872347       0.11728070
C        3.66178050       0.34560699       0.26463950      -2.22057090       0.13577677       0.45818050       2.20228338      -0.46348575       0.33667037
C        2.70886382      -0.34336139      -0.26527688       0.14724081       0.00300996      -0.50332956       0.61272351       0.17505242      -0.05906326
H        3.40630563       1.36620040       0.51328632      -0.58911413       0.24785332      -0.22211539       1.21765291       0.57826647       0.27751991
H        4.64342330      -0.12627907       0.49823229      -0.20926242      -0.21243014       0.02755280       0.06826282       0.63574321       0.06322335
H        1.93276108       0.33099797       0.08441338      -0.18343484       0.52544953       0.14742926      -0.83722085       0.33118527      -0.17688555
H        2.45071636      -1.09182080      -0.97070591      -0.06234660      -0.18576911      -0.14333385       0.41746863      -0.35608000      -0.37286757
9
Lattice="13.0 0.0 0.0 0.0 9.0 0.0 0.0 0.0 9.0" Properties=species:S:1:pos:R:3:momenta:R:3:forces:R:3 EPS_SCF=1e-06 energy=-1399.6085731963867 units=gap_units Integrated_spin_density=6.55109e-05 opt_dir=/home/tks32/dft_pbe/apr_8_opt_fragments_subset/singlepoint_1_CO2 time=25.0 free_energy=-1399.6085731963867 pbc="T T T"
C        0.28018778      -0.03197748      -0.00609858      -0.31770586       0.25132962       0.34276347      -0.26252830      -0.12039901       0.05518748
O        0.19462278      -1.15787215      -0.31557464       1.00383104       1.09143062       0.28473266      -2.17284281      -0.05095702       0.04238837
O        0.72662476       1.04592847       0.32259134       2.43136289      -1.85665056      -0.39187990      -1.12798082      -0.70255554      -0.18945077
C        3.69610437       0.33558823       0.26968221      -2.22057090       0.13577677       0.45818050       1.35262862       0.85344765       0.38748550
C        2.71422161      -0.33109961      -0.26734652       0.14724081       0.00300996      -0.50332956       0.38117215      -0.05479833      -0.13567741
H        3.43930481       1.37727115       0.51864120      -0.58911413       0.24785332      -0.22211539       1.14789375      -0.08430094       0.10997116
H        4.65580047      -0.11078017       0.50412298      -0.20926242      -0.21243014       0.02755280       0.99044906       0.05456330       0.21266239
H        1.92316219       0.32028847       0.07032276      -0.18343484       0.52544953       0.14742926      -0.80501039       0.60862803      -0.02181387
H        2.45784545      -1.08542348      -0.96819811      -0.06234660      -0.18576911      -0.14333385       0.49621874      -0.50362814      -0.46075285
9
Lattice="13.0 0.0 0.0 0.0 9.0 0.0 0.0 0.0 9.0" Properties=species:S:1:pos:R:3:momenta:R:3:forces:R:3 EPS_SCF=1e-06 energy=-1399.8787948738493 units=gap_units Integrated_spin_density=6.55109e-05 opt_dir=/home/tks32/dft_pbe/apr_8_opt_fragments_subset/singlepoint_1_CO2 time=25.0 free_energy=-1399.8787948738493 pbc="T T T"
C        0.25281919      -0.04321762      -0.00726619      -0.31770586       0.25132962       0.34276347      -0.20615911       0.24050547       0.15317920
O        0.13227554      -1.16763771      -0.31598600       1.00383104       1.09143062       0.28473266      -1.92638439       0.15609441       0.08781568
O        0.71260161       1.03728426       0.32099365       2.43136289      -1.85665056      -0.39187990      -1.39700336      -1.26603392      -0.38250892
C        3.73843048       0.33090043       0.27705994      -2.22057090       0.13577677       0.45818050       0.22399328       1.87476870       0.28595062
C        2.72187284      -0.31928352      -0.27023105       0.14724081       0.00300996      -0.50332956      -0.04726183      -0.18199103      -0.16150592
H        3.47906057       1.38772561       0.52462385      -0.58911413       0.24785332      -0.22211539       1.15553361      -0.48064262       0.01758420
H        4.67415074      -0.09508409       0.51126739      -0.20926242      -0.21243014       0.02755280       2.08449362      -0.54631535       0.40782570
H        1.90870443       0.31341242       0.05622357      -0.18343484       0.52544953       0.14742926      -0.45838352       0.76149165       0.06655700
H        2.46795883      -1.08217633      -0.96854253      -0.06234660      -0.18576911      -0.14333385       0.57117169      -0.55787730      -0.47489756
9
Lattice="13.0 0.0 0.0 0.0 9.0 0.0 0.0 0.0 9.0" Properties=species:S:1:pos:R:3:momenta:R:3:forces:R:3 EPS_SCF=1e-06 energy=-1400.198358286395 units=gap_units Integrated_spin_density=6.55109e-05 opt_dir=/home/tks32/dft_pbe/apr_8_opt_fragments_subset/singlepoint_1_CO2 time=25.0 free_energy=-1400.198358286395 pbc="T T T"
C        0.22424210      -0.05271074      -0.00736792      -0.31770586       0.25132962       0.34276347      -0.74391724      -0.37439467      -0.03925196
O        0.05712532      -1.17625011      -0.31578831       1.00383104       1.09143062       0.28473266      -1.33801697       0.53659869       0.18079251
O        0.68905018       1.01997330       0.31676955       2.43136289      -1.85665056      -0.39187990      -1.31505488      -0.93244159      -0.31334888
C        3.78197130       0.33918312       0.28635280      -2.22057090       0.13577677       0.45818050      -0.99069110       1.49544201      -0.20832333
C        2.72913826      -0.30881528      -0.27420727       0.14724081       0.00300996      -0.50332956       0.05556594       0.19251115       0.20092719
H        3.52647773       1.39478249       0.53068109      -0.58911413       0.24785332      -0.22211539       0.99064748      -0.38558090       0.03349326
H        4.70673842      -0.08327960       0.52116955      -0.20926242      -0.21243014       0.02755280       2.58301160      -0.82300989       0.46771805
H        1.89119725       0.31184355       0.04269368      -0.18343484       0.52544953       0.14742926       0.16528117       0.80835317       0.08736206
H        2.48193367      -1.08280330      -0.97216054      -0.06234660      -0.18576911      -0.14333385       0.59317400      -0.51747798      -0.40936889
9
Lattice="13.0 0.0 0.0 0.0 9.0 0.0 0.0 0.0 9.0" Properties=species:S:1:pos:R:3:momenta:R:3:forces:R:3 EPS_SCF=1e-06 energy=-1400.5405987450222 units=gap_units Integrated_spin_density=6.55109e-05 opt_dir=/home/tks32/dft_pbe/apr_8_opt_fragments_subset/singlepoint_1_CO2 time=25.0 free_energy=-1400.5405987450222 pbc="T T T"
C        0.18971161      -0.06523297      -0.00779323      -0.31770586       0.25132962       0.34276347      -1.37641920      -0.93106458      -0.22076827
O       -0.02857283      -1.18037147      -0.31409835       1.00383104       1.09143062       0.28473266      -0.85666679       0.27241588       0.06861895
O        0.65479312       0.99507561       0.30998518       2.43136289      -1.85665056      -0.39187990      -0.95642508      -0.08043966      -0.09071666
C        3.81703446       0.35976450       0.29386204      -2.22057090       0.13577677       0.45818050      -1.20584943      -0.48381763      -0.83250009
C        2.73681381      -0.29682710      -0.27649677       0.14724081       0.00300996      -0.50332956       0.71128027       0.84911766       0.76404954
H        3.58175977       1.39860642       0.53697424      -0.58911413       0.24785332      -0.22211539       0.67227714       0.31342422       0.17666126
H        4.76044601      -0.07835380       0.53486906      -0.20926242      -0.21243014       0.02755280       1.68821433      -0.47804454       0.18878710
H        1.87517340       0.31696338       0.02997663      -0.18343484       0.52544953       0.14742926       0.75955344       0.78605611       0.06306200
H        2.50071488      -1.08770115      -0.97913615      -0.06234660      -0.18576911      -0.14333385       0.56403533      -0.24764745      -0.11719381
9
Lattice="13.0 0.0 0.0 0.0 9.0 0.0 0.0 0.0 9.0" Properties=species:S:1:pos:R:3:momenta:R:3:forces:R:3 EPS_SCF=1e-06 energy=-1400.808059067606 units=gap_units Integrated_spin_density=6.55109e-05 opt_dir=/home/tks32/dft_pbe/apr_8_opt_fragments_subset/singlepoint_1_CO2 time=25.0 free_energy=-1400.808059067606 pbc="T T T"
C        0.14102324      -0.08739354      -0.01051834      -0.31770586       0.25132962       0.34276347      -1.18935835       0.26704629       0.08248513
O       -0.12271890      -1.18162867      -0.31170240       1.00383104       1.09143062       0.28473266      -0.53867094      -0.95389907      -0.32574959
O        0.61075639       0.96948014       0.30229324       2.43136289      -1.85665056      -0.39187990      -0.66003605       0.03797450      -0.07380562
C        3.83932418       0.37518396       0.29264730      -2.22057090       0.13577677       0.45818050       0.82985020      -1.78538242      -0.43904899
C        2.75186321      -0.27605211      -0.27080568       0.14724081       0.00300996      -0.50332956       0.05978204       0.29866651       0.22655151
H        3.64373923       1.40567712       0.54507399      -0.58911413       0.24785332      -0.22211539       0.16610573       0.77438696       0.24914566
H        4.83145428      -0.07844104       0.55045965      -0.20926242      -0.21243014       0.02755280      -0.16042536       0.20999795      -0.34929058
H        1.86716107       0.33025131       0.01798924      -0.18343484       0.52544953       0.14742926       0.97882579       0.73622040       0.05279102
H        2.52527153      -1.09515375      -0.98729435      -0.06234660      -0.18576911      -0.14333385       0.51392695       0.41498888       0.57692146
9
Lattice="13.0 0.0 0.0 0.0 9.0 0.0 0.0 0.0 9.0" Properties=species:S:1:pos:R:3:momenta:R:3:forces:R:3 EPS_SCF=1e-06 energy=-1400.9966545271454 units=gap_units Integrated_spin_density=6.55109e-05 opt_dir=/home/tks32/dft_pbe/apr_8_opt_fragments_subset/singlepoint_1_CO2 time=25.0 free_energy=-1400.9966545271454 pbc="T T T"
C        0.07704752      -0.10596912      -0.01215510      -0.31770586       0.25132962       0.34276347      -1.10316777       0.09665556      -0.02914168
O       -0.22345647      -1.19532095      -0.31356596       1.00383104       1.09143062       0.28473266       0.00729707      -0.59696360      -0.24979201
O        0.55831436       0.94449791       0.29367417       2.43136289      -1.85665056      -0.39187990      -0.58085477      -0.02215718      -0.08827918
C        3.87233418       0.36724717       0.28571203      -2.22057090       0.13577677       0.45818050       1.96256671      -0.97680270       0.28042093
C        2.76762294      -0.25147762      -0.26218611       0.14724081       0.00300996      -0.50332956      -0.59042916      -0.48994676      -0.45726137
H        3.70759939       1.42281488       0.55638580      -0.58911413       0.24785332      -0.22211539       0.19772120       0.05178777       0.07035131
H        4.90004298      -0.07578905       0.56142289      -0.20926242      -0.21243014       0.02755280      -1.16478507       0.40948043      -0.69622819
H        1.87195164       0.35307988       0.00674560      -0.18343484       0.52544953       0.14742926       0.88573954       0.59125826       0.04071223
H        2.55641769      -1.09715966      -0.98789068      -0.06234660      -0.18576911      -0.14333385       0.38591226       0.93668822       1.12921797
9
Lattice="13.0 0.0 0.0 0.0 9.0 0.0 0.0 0.0 9.0" Properties=species:S:1:pos:R:3:momenta:R:3:forces:R:3 EPS_SCF=1e-06 energy=-1401.1792989345902 units=gap_units Integrated_spin_density=6.55109e-05 opt_dir=/home/tks32/dft_pbe/apr_8_opt_fragments_subset/singlepoint_1_CO2 time=25.0 free_energy=-1401.1792989345902 pbc="T T T"
C       -0.00274656      -0.12307261      -0.01420993      -0.31770586       0.25132962       0.34276347      -0.61421443      -0.50365309      -0.29732870
O       -0.32372899      -1.21764767      -0.31905626       1.00383104       1.09143062       0.28473266       0.29005964       0.42214768       0.04382963
O        0.49761026       0.91928240       0.28380173       2.43136289      -1.85665056      -0.39187990      -0.53398163      -0.32574219      -0.15785823
C        3.93377337       0.34513044       0.28288038      -2.22057090       0.13577677       0.45818050      -0.65001360      -0.04188629      -0.26254975
C        2.77473834      -0.23411728      -0.26024841       0.14724081       0.00300996      -0.50332956       1.26786700       0.42763238       0.46769169
H        3.77410802       1.44064487       0.56868061      -0.58911413       0.24785332      -0.22211539       0.39666792      -1.09228860      -0.19102733
H        4.95144477      -0.06719036       0.56221999      -0.20926242      -0.21243014       0.02755280      -0.77512928       0.05658387      -0.64612598
H        1.88960879       0.38442734      -0.00386579      -0.18343484       0.52544953       0.14742926       0.51667338       0.28412092       0.02703377
H        2.59306623      -1.08553370      -0.97205968      -0.06234660      -0.18576911      -0.14333385       0.10207100       0.77308534       1.01633490
9
Lattice="13.0 0.0 0.0 0.0 9.0 0.0 0.0 0.0 9.0" Properties=species:S:1:pos:R:3:momenta:R:3:forces:R:3 EPS_SCF=1e-06 energy=-1401.2429738148178 units=gap_units Integrated_spin_density=6.55109e-05 opt_dir=/home/tks32/dft_pbe/apr_8_opt_fragments_subset/singlepoint_1_CO2 time=25.0 free_energy=-1401.2429738148178 pbc="T T T"
C       -0.09189701      -0.14887476      -0.02157077      -0.31770586       0.25132962       0.34276347       1.17675224       0.84611584       0.02201251
O       -0.41665283      -1.23190470      -0.32364135       1.00383104       1.09143062       0.28473266      -0.09377969      -0.45899114      -0.18092873