9
Lattice="13.0 0.0 0.0 0.0 9.0 0.0 0.0 0.0 9.0" Properties=species:S:1:pos:R:3:momenta:R:3:forces:R:3 EPS_SCF=1e-06 energy=-1400.005553143748 units=gap_units Integrated_spin_density=6.55109e-05 opt_dir=/home/tks32/dft_pbe/apr_8_opt_fragments_subset/singlepoint_1_CO2 time=100.0 free_energy=-1400.005553143748 pbc="T T T"
C       -0.01138736      -0.19652845       0.17067772      -0.42421610       0.40191230       1.08564938       0.42969123      -1.16786288      -1.40070263
O       -1.08777770      -0.54017807      -0.20153703      -2.04962603       2.33783045      -0.60650178       1.31041455       0.68793435       1.13150607
O        1.25438988      -0.12643148       0.11691530      -2.24238727      -4.53039919      -1.14867259       0.40626170       1.44508728       0.31067933
C        3.91350019       1.08071251       0.11415133       3.28327014       0.50712918      -0.23894401       0.00628347      -2.98786277      -0.43968292
C        4.06299120      -0.21713984      -0.19939465       1.72947430       1.60306465       1.23755616      -0.81860739       1.39469079      -0.12348437
H        3.12581618       1.66226290      -0.36602841      -0.33431833      -0.51703991      -0.21042525       0.07033266       0.29477332       0.15040186
H        4.53870970       1.36887670       0.94176895       0.36112827       0.21069873      -0.34239412       0.42198657       0.92655932       0.36244171
H        1.75410842       0.66827678       0.60910355       0.12444766       0.05953312       0.26558814      -1.36906141      -0.77441967      -0.32536677
H        4.35270229      -1.06725556      -0.85973436      -0.44777264      -0.07272932      -0.04185593      -0.45730138       0.18110027       0.33420772
9
Lattice="13.0 0.0 0.0 0.0 9.0 0.0 0.0 0.0 9.0" Properties=species:S:1:pos:R:3:momenta:R:3:forces:R:3 EPS_SCF=1e-06 energy=-1400.1977081885536 units=gap_units Integrated_spin_density=6.55109e-05 opt_dir=/home/tks32/dft_pbe/apr_8_opt_fragments_subset/singlepoint_1_CO2 time=100.0 free_energy=-1400.1977081885536 pbc="T T T"
C       -0.00709045      -0.20820708       0.15667069      -0.42421610       0.40191230       1.08564938       1.91537810      -0.50449496      -0.71791212
O       -1.07467355      -0.53329873      -0.19022197      -2.04962603       2.33783045      -0.60650178      -0.27952352       0.14739868       0.52182482
O        1.25845250      -0.11198061       0.12002209      -2.24238727      -4.53039919      -1.14867259      -0.01028567       0.56960657      -0.20019267
C        3.91356302       1.05083388       0.10975450       3.28327014       0.50712918      -0.23894401       0.11580652      -2.18464760      -0.02617501
C        4.05480513      -0.20319293      -0.20062949       1.72947430       1.60306465       1.23755616      -0.59624465       1.04375362      -0.39311533
H        3.12651951       1.66521063      -0.36452439      -0.33431833      -0.51703991      -0.21042525       0.39906913      -0.03487523       0.34847286
H        4.54292957       1.37814229       0.94539337       0.36112827       0.21069873      -0.34239412       0.00736116       0.62945971      -0.21234182
H        1.74041781       0.66053258       0.60584988       0.12444766       0.05953312       0.26558814      -1.00067605      -0.05673765       0.13949483
H        4.34812928      -1.06544456      -0.85639228      -0.44777264      -0.07272932      -0.04185593      -0.55088501       0.39053686       0.53994444
9
Lattice="13.0 0.0 0.0 0.0 9.0 0.0 0.0 0.0 9.0" Properties=species:S:1:pos:R:3:momenta:R:3:forces:R:3 EPS_SCF=1e-06 energy=-1400.3426416144844 units=gap_units Integrated_spin_density=6.55109e-05 opt_dir=/home/tks32/dft_pbe/apr_8_opt_fragments_subset/singlepoint_1_CO2 time=100.0 free_energy=-1400.3426416144844 pbc="T T T"
C        0.01850013      -0.22443960       0.13592213      -0.42421610       0.40191230       1.08564938       0.51210753      -0.38615987      -0.46425148
O       -1.06605005      -0.52543559      -0.17412011      -2.04962603       2.33783045      -0.60650178      -0.33635089       0.06580221       0.38468939
O        1.26199220      -0.09251460       0.12054771      -2.24238727      -4.53039919      -1.14867259       0.45477740      -0.67209969      -1.03360970
C        3.91493300       0.99916582       0.10550049       3.28327014       0.50712918      -0.23894401      -0.07438383       2.05569356       1.17541732
C        4.04067532      -0.17880293      -0.20619939       1.72947430       1.60306465       1.23755616       0.16326931      -2.44405799      -1.54206999
H        3.13167856       1.66746805      -0.35921855      -0.33431833      -0.51703991      -0.21042525       0.79120783      -0.51142975       0.60698327
H        4.54681093       1.39362038       0.94624706       0.36112827       0.21069873      -0.34239412      -0.46004615       0.18496198      -0.83363847
H        1.71674703       0.65291931       0.60450367       0.12444766       0.05953312       0.26558814      -0.38511576       1.08525104       0.91851696
H        4.33776567      -1.05938536      -0.84726061      -0.44777264      -0.07272932      -0.04185593      -0.66546544       0.62203850       0.78796269
9
Lattice="13.0 0.0 0.0 0.0 9.0 0.0 0.0 0.0 9.0" Properties=species:S:1:pos:R:3:momenta:R:3:forces:R:3 EPS_SCF=1e-06 energy=-1400.3872853835642 units=gap_units Integrated_spin_density=6.55109e-05 opt_dir=/home/tks32/dft_pbe/apr_8_opt_fragments_subset/singlepoint_1_CO2 time=100.0 free_energy=-1400.3872853835642 pbc="T T T"
C        0.01978040      -0.22540500       0.13476150      -0.42421610       0.40191230       1.08564938       0.40800609      -0.41312666      -0.49077406
O       -1.06689093      -0.52527108      -0.17315839      -2.04962603       2.33783045      -0.60650178      -0.22926526       0.09405507       0.41098782
O        1.26312914      -0.09419485       0.11796369      -2.24238727      -4.53039919      -1.14867259       0.52572096      -0.52892080      -0.93517341
C        3.91474704       1.00430506       0.10843903       3.28327014       0.50712918      -0.23894401       0.02817031       0.67665803       0.73670763
C        4.04108349      -0.18491308      -0.21005457       1.72947430       1.60306465       1.23755616      -0.03538128      -0.95327209      -0.99630107
H        3.13365658       1.66618948      -0.35770109      -0.33431833      -0.51703991      -0.21042525       0.70237710      -0.43863230       0.57324256
H        4.54566082       1.39408278       0.94416296       0.36112827       0.21069873      -0.34239412      -0.35924192       0.23191087      -0.71357120
H        1.71578425       0.65563244       0.60679996       0.12444766       0.05953312       0.26558814      -0.45300565       0.94086376       0.80825284
H        4.33610201      -1.05783026      -0.84529070      -0.44777264      -0.07272932      -0.04185593      -0.58738036       0.39046412       0.60662889
9
Lattice="13.0 0.0 0.0 0.0 9.0 0.0 0.0 0.0 9.0" Properties=species:S:1:pos:R:3:momenta:R:3:forces:R:3 EPS_SCF=1e-06 energy=-1400.4249287518483 units=gap_units Integrated_spin_density=6.55109e-05 opt_dir=/home/tks32/dft_pbe/apr_8_opt_fragments_subset/singlepoint_1_CO2 time=100.0 free_energy=-1400.4249287518483 pbc="T T T"
C        0.02210973      -0.22746571       0.13230107      -0.42421610       0.40191230       1.08564938       0.29808255      -0.44581094      -0.52839880
O       -1.06830914      -0.52485168      -0.17110715      -2.04962603       2.33783045      -0.60650178      -0.06351298       0.13577123       0.44680026
O        1.26566907      -0.09723299       0.11294013      -2.24238727      -4.53039919      -1.14867259       0.60964040      -0.28136768      -0.75763808
C        3.91466095       1.01088250       0.11320910       3.28327014       0.50712918      -0.23894401       0.10762171      -0.82934126       0.19360560
C        4.04134878      -0.19316236      -0.21639851       1.72947430       1.60306465       1.23755616      -0.26872491       0.71845380      -0.31030397
H        3.13746313       1.66377332      -0.35468160      -0.33431833      -0.51703991      -0.21042525       0.55615800      -0.31907053       0.51811060
H        4.54358931       1.39516800       0.94022865       0.36112827       0.21069873      -0.34239412      -0.18444296       0.31374634      -0.50222953
H        1.71361083       0.66078861       0.61119840       0.12444766       0.05953312       0.26558814      -0.58309416       0.68316557       0.61591062
H        4.33291014      -1.05530420      -0.84176768      -0.44777264      -0.07272932      -0.04185593      -0.47172765       0.02445347       0.32414329
9
Lattice="13.0 0.0 0.0 0.0 9.0 0.0 0.0 0.0 9.0" Properties=species:S:1:pos:R:3:momenta:R:3:forces:R:3 EPS_SCF=1e-06 energy=-1400.4497133466193 units=gap_units Integrated_spin_density=6.55109e-05 opt_dir=/home/tks32/dft_pbe/apr_8_opt_fragments_subset/singlepoint_1_CO2 time=100.0 free_energy=-1400.4497133466193 pbc="T T T"
C        0.02518830      -0.23078931       0.12834561      -0.42421610       0.40191230       1.08564938       0.30970108      -0.45291801      -0.55208828
O       -1.06979481      -0.52402685      -0.16778883      -2.04962603       2.33783045      -0.60650178       0.08582535       0.16835628       0.46697455
O        1.26996379      -0.10089443       0.10592249      -2.24238727      -4.53039919      -1.14867259       0.61933393      -0.00340951      -0.54113262
C        3.91493808       1.01406951       0.11814009       3.28327014       0.50712918      -0.23894401       0.11035669      -1.63274044      -0.19331104
C        4.04070208      -0.19821940      -0.22313052       1.72947430       1.60306465       1.23755616      -0.39405539       1.64276154       0.15252413
H        3.14272157       1.66054744      -0.35025687      -0.33431833      -0.51703991      -0.21042525       0.40288722      -0.19619818       0.46112876
H        4.54111722       1.39717850       0.93503291       0.36112827       0.21069873      -0.34239412       0.00611366       0.40102657      -0.26749438
H        1.70973345       0.66768021       0.61718644       0.12444766       0.05953312       0.26558814      -0.75156244       0.37248705       0.39113965
H        4.32848311      -1.05295017      -0.83752891      -0.44777264      -0.07272932      -0.04185593      -0.38860008      -0.29936530       0.08225923
9
Lattice="13.0 0.0 0.0 0.0 9.0 0.0 0.0 0.0 9.0" Properties=species:S:1:pos:R:3:momenta:R:3:forces:R:3 EPS_SCF=1e-06 energy=-1400.4859283647884 units=gap_units Integrated_spin_density=6.55109e-05 opt_dir=/home/tks32/dft_pbe/apr_8_opt_fragments_subset/singlepoint_1_CO2 time=100.0 free_energy=-1400.4859283647884 pbc="T T T"
C        0.02895940      -0.23524353       0.12300237      -0.42421610       0.40191230       1.08564938       0.44381934      -0.42293284      -0.54777613
O       -1.07085468      -0.52274070      -0.16329395      -2.04962603       2.33783045      -0.60650178       0.18438443       0.18196256       0.46140011
O        1.27582956      -0.10420073       0.09785869      -2.24238727      -4.53039919      -1.14867259       0.52501146       0.22658438      -0.33695292
C        3.91554396       1.01166386       0.12195356       3.28327014       0.50712918      -0.23894401       0.09096828      -1.79214488      -0.37882490
C        4.03884720      -0.19746441      -0.22869666       1.72947430       1.60306465       1.23755616      -0.37845692       1.81235109       0.30272461
H        3.14875555       1.65701041      -0.34478511      -0.33431833      -0.51703991      -0.21042525       0.27618574      -0.10181231       0.41404012
H        4.53891208       1.40028331       0.92949271       0.36112827       0.21069873      -0.34239412       0.15142111       0.45947375      -0.08426815
H        1.70381617       0.67508582       0.62383910       0.12444766       0.05953312       0.26558814      -0.91404222       0.08234582       0.18679629
H        4.32324356      -1.05179854      -0.83344831      -0.44777264      -0.07272932      -0.04185593      -0.37929123      -0.44582755      -0.01713904
9
Lattice="13.0 0.0 0.0 0.0 9.0 0.0 0.0 0.0 9.0" Properties=species:S:1:pos:R:3:momenta:R:3:forces:R:3 EPS_SCF=1e-06 energy=-1400.5403121086063 units=gap_units Integrated_spin_density=6.55109e-05 opt_dir=/home/tks32/dft_pbe/apr_8_opt_fragments_subset/singlepoint_1_CO2 time=100.0 free_energy=-1400.5403121086063 pbc="T T T"
C        0.03379366      -0.24062483       0.11641581      -0.42421610       0.40191230       1.08564938       0.60860392      -0.36915518      -0.52045390
O       -1.07121020      -0.52099265      -0.15775122      -2.04962603       2.33783045      -0.60650178       0.25224693       0.18240588       0.43669966
O        1.28281252      -0.10644110       0.08950780      -2.24238727      -4.53039919      -1.14867259       0.36533715       0.36414331      -0.18157813
C        3.91638447       1.00368290       0.12415632       3.28327014       0.50712918      -0.23894401       0.07523312      -1.22870997      -0.29374709
C        4.03594964      -0.19090347      -0.23272378       1.72947430       1.60306465       1.23755616      -0.20753554       1.14196796       0.09067797
H        3.15508241       1.65349667      -0.33851688      -0.33431833      -0.51703991      -0.21042525       0.17988225      -0.04366885       0.37691152
H        4.53741885       1.40456872       0.92423306       0.36112827       0.21069873      -0.34239412       0.21917663       0.46599296       0.00769375
H        1.69552437       0.68201810       0.63043268       0.12444766       0.05953312       0.26558814      -1.03533998      -0.13753183       0.03548297
H        4.31729708      -1.05220886      -0.82983138      -0.44777264      -0.07272932      -0.04185593      -0.45760447      -0.37544428       0.04831325
9
Lattice="13.0 0.0 0.0 0.0 9.0 0.0 0.0 0.0 9.0" Properties=species:S:1:pos:R:3:momenta:R:3:forces:R:3 EPS_SCF=1e-06 energy=-1400.5881960617155 units=gap_units Integrated_spin_density=6.55109e-05 opt_dir=/home/tks32/dft_pbe/apr_8_opt_fragments_subset/singlepoint_1_CO2 time=100.0 free_energy=-1400.5881960617155 pbc="T T T"
C        0.04032999      -0.24679363       0.10861897      -0.42421610       0.40191230       1.08564938       0.67831906      -0.31346556      -0.48033216
O       -1.07062436      -0.51876439      -0.15119458      -2.04962603       2.33783045      -0.60650178       0.32889898       0.18026851       0.40414270
O        1.29040911      -0.10714979       0.08133994      -2.24238727      -4.53039919      -1.14867259       0.21469996       0.38816189      -0.10055115
C        3.91741109       0.99208776       0.12508396       3.28327014       0.50712918      -0.23894401       0.04029753       0.30901712       0.15933365
C        4.03259658      -0.18089784      -0.23602257       1.72947430       1.60306465       1.23755616       0.11117286      -0.55502571      -0.50677361
H        3.16142253       1.65017749      -0.33152200      -0.33431833      -0.51703991      -0.21042525       0.09331416      -0.00725630       0.34124702
H        4.53686200       1.41009897       0.91952701       0.36112827       0.21069873      -0.34239412       0.21558638       0.41611613       0.01542673
H        1.68434385       0.68776328       0.63649433       0.12444766       0.05953312       0.26558814      -1.08532504      -0.25420456      -0.04586870
H        4.31030200      -1.05392637      -0.82640266      -0.44777264      -0.07272932      -0.04185593      -0.59696390      -0.16361153       0.21337553
9
Lattice="13.0 0.0 0.0 0.0 9.0 0.0 0.0 0.0 9.0" Properties=species:S:1:pos:R:3:momenta:R:3:forces:R:3 EPS_SCF=1e-06 energy=-1400.6188155685268 units=gap_units Integrated_spin_density=6.55109e-05 opt_dir=/home/tks32/dft_pbe/apr_8_opt_fragments_subset/singlepoint_1_CO2 time=100.0 free_energy=-1400.6188155685268 pbc="T T T"
C        0.04897051      -0.25362000       0.09964893      -0.42421610       0.40191230       1.08564938       0.58917773      -0.27346908      -0.43555084
O       -1.06875990      -0.51602604      -0.14365050      -2.04962603       2.33783045      -0.60650178       0.42663254       0.17919954       0.36930651
O        1.29811893      -0.10620948       0.07358007      -2.24238727      -4.53039919      -1.14867259       0.15217566       0.30500230      -0.10315903
C        3.91849888       0.98290849       0.12656664       3.28327014       0.50712918      -0.23894401       0.04343774       1.69164972       0.61619242
C        4.03003082      -0.17414932      -0.24105185       1.72947430       1.60306465       1.23755616       0.36444625      -1.98744859      -0.98326933
H        3.16750803       1.64716073      -0.32383920      -0.33431833      -0.51703991      -0.21042525      -0.02736932       0.04985801       0.29169282
H        4.53723734       1.41676799       0.91535428       0.36112827       0.21069873      -0.34239412       0.20234171       0.34413729       0.00786836
H        1.66986882       0.69190043       0.64176332       0.12444766       0.05953312       0.26558814      -1.03490114      -0.25612600      -0.06240079
H        4.30157937      -1.05613732      -0.82244929      -0.44777264      -0.07272932      -0.04185593      -0.71594117      -0.05280319       0.29931987
9
Lattice="13.0 0.0 0.0 0.0 9.0 0.0 0.0 0.0 9.0" Properties=species:S:1:pos:R:3:momenta:R:3:forces:R:3 EPS_SCF=1e-06 energy=-1400.6788120707151 units=gap_units Integrated_spin_density=6.55109e-05 opt_dir=/home/tks32/dft_pbe/apr_8_opt_fragments_subset/singlepoint_1_CO2 time=100.0 free_energy=-1400.6788120707151 pbc="T T T"
C        0.05993645      -0.26149756       0.08898565      -0.42421610       0.40191230       1.08564938       0.41496121      -0.24269347      -0.38303245
O       -1.06516764      -0.51258152      -0.13467008      -2.04962603       2.33783045      -0.60650178       0.50984611       0.16963925       0.32404471
O        1.30637460      -0.10403002       0.06547551      -2.24238727      -4.53039919      -1.14867259       0.19603163       0.15006085      -0.16758873
C        3.91975361       0.98074589       0.13055691       3.28327014       0.50712918      -0.23894401       0.18631895       1.19369128       0.47116215
C        4.02898260      -0.17560402      -0.25005590       1.72947430       1.60306465       1.23755616       0.31116916      -1.31375343      -0.65635398
H        3.17342063       1.64437824      -0.31503917      -0.33431833      -0.51703991      -0.21042525      -0.20764802       0.16007318       0.21920241
H        4.53843722       1.42477906       0.91125548       0.36112827       0.21069873      -0.34239412       0.24182007       0.29525267       0.05462997
H        1.65130211       0.69494775       0.64672418       0.12444766       0.05953312       0.26558814      -0.88896455      -0.17623329      -0.04238914
H        4.29001323      -1.05854231      -0.81731018      -0.44777264      -0.07272932      -0.04185593      -0.76353458      -0.23603705       0.18032506
9
Lattice="13.0 0.0 0.0 0.0 9.0 0.0 0.0 0.0 9.0" Properties=species:S:1:pos:R:3:momenta:R:3:forces:R:3 EPS_SCF=1e-06 energy=-1400.7402724499475 units=gap_units Integrated_spin_density=6.55109e-05 opt_dir=/home/tks32/dft_pbe/apr_8_opt_fragments_subset/singlepoint_1_CO2 time=100.0 free_energy=-1400.7402724499475 pbc="T T T"
C        0.07298254      -0.27057869       0.07640709      -0.42421610       0.40191230       1.08564938       0.24636771      -0.20312034      -0.30924816
O       -1.05893166      -0.50827737      -0.12406898      -2.04962603       2.33783045      -0.60650178       0.48081300       0.13065378       0.25277481
O        1.31558558      -0.10108244       0.05656356      -2.24238727      -4.53039919      -1.14867259       0.33069538      -0.05121849      -0.27651055
C        3.92197498       0.98486709       0.13698435       3.28327014       0.50712918      -0.23894401       0.36904103      -0.72012295      -0.20337148
C        4.02957674      -0.18394043      -0.26242441       1.72947430       1.60306465       1.23755616       0.05944456       0.99367897       0.33401031
H        3.17819086       1.64246058      -0.30516707      -0.33431833      -0.51703991      -0.21042525      -0.39796991       0.28898641       0.14293170
H        4.54089551       1.43426833       0.90747987       0.36112827       0.21069873      -0.34239412       0.33465293       0.28283314       0.15831785
H        1.62823530       0.69704305       0.65141843       0.12444766       0.05953312       0.26558814      -0.66757215      -0.03553082       0.01084987
H        4.27454294      -1.06216463      -0.81127045      -0.44777264      -0.07272932      -0.04185593      -0.75547255      -0.68615970      -0.10975435
9
Lattice="13.0 0.0 0.0 0.0 9.0 0.0 0.0 0.0 9.0" Properties=species:S:1:pos:R:3:momenta:R:3:forces:R:3 EPS_SCF=1e-06 energy=-1400.79915799627 units=gap_units Integrated_spin_density=6.55109e-05 opt_dir=/home/tks32/dft_pbe/apr_8_opt_fragments_subset/singlepoint_1_CO2 time=100.0 free_energy=-1400.79915799627 pbc="T T T"
C        0.08759606      -0.28096518       0.06183140      -0.42421610       0.40191230       1.08564938       0.29102318      -0.12730950      -0.21351537
O       -1.04948650      -0.50312157      -0.11183794      -2.04962603       2.33783045      -0.60650178       0.25965847       0.04940417       0.14896903
O        1.32696532      -0.09850492       0.04584765      -2.24238727      -4.53039919      -1.14867259       0.43728055      -0.25044586      -0.37684861
C        3.92667954       0.98407672       0.14198359       3.28327014       0.50712918      -0.23894401       0.36507871      -1.16148482      -0.43693901
C        4.03056902      -0.18547880      -0.27243313       1.72947430       1.60306465       1.23755616       0.03525951       1.68492635       0.67952666
H        3.18022729       1.64251600      -0.29440361      -0.33431833      -0.51703991      -0.21042525      -0.44388039       0.29518503       0.12405201
H        4.54560213       1.44559990       0.90480647       0.36112827       0.21069873      -0.34239412       0.34484654       0.21530908       0.17686786
H        1.60082536       0.69888125       0.65614953       0.12444766       0.05953312       0.26558814      -0.42508446       0.09673757       0.07560525
H        4.25407459      -1.07040791      -0.80602156      -0.44777264      -0.07272932      -0.04185593      -0.86418212      -0.80232201      -0.17771783
9
Lattice="13.0 0.0 0.0 0.0 9.0 0.0 0.0 0.0 9.0" Properties=species:S:1:pos:R:3:momenta:R:3:forces:R:3 EPS_SCF=1e-06 energy=-1400.8860686449707 units=gap_units Integrated_spin_density=6.55109e-05 opt_dir=/home/tks32/dft_pbe/apr_8_opt_fragments_subset/singlepoint_1_CO2 time=100.0 free_energy=-1400.8860686449707 pbc="T T T"
C        0.10425908      -0.29222134       0.04577798      -0.42421610       0.40191230       1.08564938       0.37788083      -0.05245592      -0.13543370
O       -1.03818853      -0.49763585      -0.09858978      -2.04962603       2.33783045      -0.60650178       0.07108101      -0.02400146       0.05693399
O        1.34149580      -0.09779318       0.03242255      -2.24238727      -4.53039919      -1.14867259       0.46634209      -0.35357771      -0.38663243
C        3.93404689       0.97471931       0.14372434       3.28327014       0.50712918      -0.23894401       0.17599901       0.58861360       0.10236489
C        4.03181486      -0.17457117      -0.27735920       1.72947430       1.60306465       1.23755616       0.33048003      -0.18922922      -0.06422619
H        3.17897393       1.64474967      -0.28279706      -0.33431833      -0.51703991      -0.21042525      -0.31022475       0.14332351       0.16772507
H        4.55282220       1.45844426       0.90345645       0.36112827       0.21069873      -0.34239412       0.21717842       0.04760505       0.05239125
H        1.57046262       0.70142104       0.66140678       0.12444766       0.05953312       0.26558814      -0.20931546       0.11169344       0.07366238
H        4.22736594      -1.08451725      -0.80211966      -0.44777264      -0.07272932      -0.04185593      -1.11942118      -0.27197131       0.13321474
9
Lattice="13.0 0.0 0.0 0.0 9.0 0.0 0.0 0.0 9.0" Properties=species:S:1:pos:R:3:momenta:R:3:forces:R:3 EPS_SCF=1e-06 energy=-1400.9630329574568 units=gap_units Integrated_spin_density=6.55109e-05 opt_dir=/home/tks32/dft_pbe/apr_8_opt_fragments_subset/singlepoint_1_CO2 time=100.0 free_energy=-1400.9630329574568 pbc="T T T"
C        0.12477071      -0.30396109       0.02840233      -0.42421610       0.40191230       1.08564938       0.15085501      -0.03082344      -0.10170641
O       -1.02621287      -0.49243165      -0.08482261      -2.04962603       2.33783045      -0.60650178       0.26387326      -0.02841637       0.01492156
O        1.36081002      -0.10077488       0.01503919      -2.24238727      -4.53039919      -1.14867259       0.42765298      -0.24683919      -0.21475227
C        3.94320897       0.97155682       0.14652335       3.28327014       0.50712918      -0.23894401      -0.04329604       1.70953394       0.40897975
C        4.03650203      -0.16569986      -0.28292754       1.72947430       1.60306465       1.23755616       0.50339965      -1.45551268      -0.55845583
H        3.17449063       1.64846620      -0.26950613      -0.33431833      -0.51703991      -0.21042525      -0.13498037      -0.00874256       0.20677690
H        4.56226753       1.47171259       0.90266076       0.36112827       0.21069873      -0.34239412       0.13600240      -0.06423721      -0.01993780
H        1.53808779       0.70511191       0.66740288       0.12444766       0.05953312       0.26558814      -0.02341782      -0.10112646      -0.11041205
H        4.18912799      -1.10138454      -0.79684984      -0.44777264      -0.07272932      -0.04185593      -1.28008908       0.22616398       0.37458616
9
Lattice="13.0 0.0 0.0 0.0 9.0 0.0 0.0 0.0 9.0" Properties=species:S:1:pos:R:3:momenta:R:3:forces:R:3 EPS_SCF=1e-06 energy=-1401.0508156473818 units=gap_units Integrated_spin_density=6.55109e-05 opt_dir=/home/tks32/dft_pbe/apr_8_opt_fragments_subset/singlepoint_1_CO2 time=100.0 free_energy=-1401.0508156473818 pbc="T T T"
C        0.14678195      -0.31597245       0.01003199      -0.42421610       0.40191230       1.08564938       0.03205086       0.04411620      -0.04117459
O       -1.01150394      -0.48755173      -0.07096120      -2.04962603       2.33783045      -0.60650178       0.46410577      -0.04202861      -0.03548129
O        1.38455441      -0.10635130      -0.00453343      -2.24238727      -4.53039919      -1.14867259       0.12056208      -0.00288531       0.10580402
C        3.95187129       0.98647428       0.15363133       3.28327014       0.50712918      -0.23894401      -0.06350691      -0.90035837      -0.69423304
C        4.04648725      -0.17225047      -0.29437165       1.72947430       1.60306465       1.23755616       0.24920581       1.36557220       0.65905368
H        3.16860160       1.65207321      -0.25409135      -0.33431833      -0.51703991      -0.21042525      -0.05635295       0.00593170       0.19002254
H        4.57310651       1.48424094       0.90165804       0.36112827       0.21069873      -0.34239412       0.22055377      -0.00391143       0.08129018
H        1.50561472       0.70771712       0.67220457       0.12444766       0.05953312       0.26558814       0.18904408      -0.46306124      -0.44007315
H        4.13753901      -1.11578411      -0.78764589      -0.44777264      -0.07272932      -0.04185593      -1.15566250      -0.00337513       0.17479165
9
Lattice="13.0 0.0 0.0 0.0 9.0 0.0 0.0 0.0 9.0" Properties=species:S:1:pos:R:3:momenta:R:3:forces:R:3 EPS_SCF=1e-06 energy=-1401.1234197597907 units=gap_units Integrated_spin_density=6.55109e-05 opt_dir=/home/tks32/dft_pbe/apr_8_opt_fragments_subset/singlepoint_1_CO2 time=100.0 free_energy=-1401.1234197597907 pbc="T T T"
C        0.16913906      -0.32735700      -0.00881798      -0.42421610       0.40191230       1.08564938       0.18897266       0.20547954       0.08348075
O       -0.99070351      -0.48324557      -0.05761888      -2.04962603       2.33783045      -0.60650178       0.21381847      -0.13093587      -0.12336383
O        1.40981023      -0.11194605      -0.02263567      -2.24238727      -4.53039919      -1.14867259      -0.39661370       0.15720380       0.37041193
C        3.95966203       0.98941951       0.15152361       3.28327014       0.50712918      -0.23894401       0.00046052      -0.19525717      -0.25466313
C        4.05973592      -0.16070007      -0.29705034       1.72947430       1.60306465       1.23755616       0.25150420       0.27920951       0.24122859
H        3.16198754       1.65574589      -0.23621595      -0.33431833      -0.51703991      -0.21042525       0.03125287      -0.00315062       0.12771537
H        4.58682661       1.49667288       0.90173502       0.36112827       0.21069873      -0.34239412       0.03802325      -0.14379672      -0.11660704
H        1.47575993       0.70418297       0.67116340       0.12444766       0.05953312       0.26558814       0.45368880      -0.67816672      -0.65334059
H        4.07083499      -1.13017707      -0.77616081      -0.44777264      -0.07272932      -0.04185593      -0.78110707       0.50941425       0.32513795
9
Lattice="13.0 0.0 0.0 0.0 9.0 0.0 0.0 0.0 9.0" Properties=species:S:1:pos:R:3:momenta:R:3:forces:R:3 EPS_SCF=1e-06 energy=-1401.1321725201562 units=gap_units Integrated_spin_density=6.55109e-05 opt_dir=/home/tks32/dft_pbe/apr_8_opt_fragments_subset/singlepoint_1_CO2 time=100.0 free_energy=-1401.1321725201562 pbc="T T T"
C        0.19471331      -0.33515320      -0.02617415      -0.42421610       0.40191230       1.08564938      -0.68015248       0.15744703       0.19836298