9
Lattice="13.0 0.0 0.0 0.0 9.0 0.0 0.0 0.0 9.0" Properties=species:S:1:pos:R:3:momenta:R:3:forces:R:3 EPS_SCF=1e-06 energy=-1400.7216206107419 units=gap_units Integrated_spin_density=6.55109e-05 opt_dir=/home/tks32/dft_pbe/apr_8_opt_fragments_subset/singlepoint_1_CO2 time=10.0 free_energy=-1400.7216206107419 pbc="T T T"
C        0.30117370      -0.00171992      -0.02567978       2.77249412       0.08529656       0.01220406      -0.98787239       3.43190666       1.20852618
O        0.20661002      -1.10750803      -0.31191471       4.91895693      -2.08326526      -0.62353781      -0.50427661      -3.23915154      -1.21825112
O        0.45784936       1.12139769       0.33762998       4.72341975       2.39874287       0.71189124      -1.18549810      -0.06157636      -0.06728061
C        4.02697264       0.35520533       0.24347500      -6.44971211      -0.17985719      -0.55472098      -1.06884299      -0.98797900      -0.55546749
C        2.94586924      -0.41808781      -0.23416385      -5.18922382      -0.13882339       0.30907071       1.58108906       1.97251968      -0.83369470
H        3.83924314       1.27584819       0.82854856      -0.04554149      -0.14498976      -0.21003843       0.51386702       0.07231070       0.23452818
H        5.04581548       0.00996787       0.18452299      -0.05998499       0.19811584       0.40091311       1.30078833      -0.04209660       0.13033210
H        2.09688150       0.22257020       0.00385458       0.09223828      -0.22963216      -0.17298619       0.97521526      -0.99389125      -0.19918784
H        3.12233903      -0.95906201      -1.23003617      -0.76264668       0.09441248       0.12720430      -0.62446957      -0.15204228       1.30049530
9
Lattice="13.0 0.0 0.0 0.0 9.0 0.0 0.0 0.0 9.0" Properties=species:S:1:pos:R:3:momenta:R:3:forces:R:3 EPS_SCF=1e-06 energy=-1400.8110560011148 units=gap_units Integrated_spin_density=6.55109e-05 opt_dir=/home/tks32/dft_pbe/apr_8_opt_fragments_subset/singlepoint_1_CO2 time=10.0 free_energy=-1400.8110560011148 pbc="T T T"
C        0.29129498       0.03259915      -0.01359452       2.77249412       0.08529656       0.01220406      -1.64148995      -5.10372463      -1.24512918
O        0.20156725      -1.13989955      -0.32409722       4.91895693      -2.08326526      -0.62353781      -0.18178838       2.70537708       0.38922690
O        0.44599438       1.12078193       0.33695717       4.72341975       2.39874287       0.71189124      -0.98174900       2.58490071       0.81769190
C        4.01628421       0.34532554       0.23792033      -6.44971211      -0.17985719      -0.55472098       1.86450320       0.67835445       0.56817615
C        2.96168013      -0.39836261      -0.24250080      -5.18922382      -0.13882339       0.30907071      -0.16030369       0.22309409      -1.70981857
H        3.84438181       1.27657130       0.83089384      -0.04554149      -0.14498976      -0.21003843       0.47061397      -0.22549285       0.05939761
H        5.05882336       0.00954690       0.18582631      -0.05998499       0.19811584       0.40091311       0.60151380       0.10157838       0.11561852
H        2.10663365       0.21263129       0.00186270       0.09223828      -0.22963216      -0.17298619       0.49894108      -0.67992090      -0.06546578
H        3.11609433      -0.96058243      -1.21703122      -0.76264668       0.09441248       0.12720430      -0.47024103      -0.28416633       1.07030246
9
Lattice="13.0 0.0 0.0 0.0 9.0 0.0 0.0 0.0 9.0" Properties=species:S:1:pos:R:3:momenta:R:3:forces:R:3 EPS_SCF=1e-06 energy=-1400.9170361607648 units=gap_units Integrated_spin_density=6.55109e-05 opt_dir=/home/tks32/dft_pbe/apr_8_opt_fragments_subset/singlepoint_1_CO2 time=10.0 free_energy=-1400.9170361607648 pbc="T T T"
C        0.28719125       0.01983983      -0.01670734       2.77249412       0.08529656       0.01220406      -1.30773327      -2.02644347      -0.35047389
O        0.20111278      -1.13313610      -0.32312415       4.91895693      -2.08326526      -0.62353781      -0.24990231       1.32718034       0.02395032
O        0.44354001       1.12724418       0.33900140       4.72341975       2.39874287       0.71189124      -1.19706609       0.89650999       0.28181413
C        4.02094547       0.34702143       0.23934077      -6.44971211      -0.17985719      -0.55472098       1.41008117       0.37129636       0.33898299
C        2.96127937      -0.39780488      -0.24677534      -5.18922382      -0.13882339       0.30907071       0.22174767       0.48191780      -1.39844140
H        3.84555835       1.27600756       0.83104234      -0.04554149      -0.14498976      -0.21003843       0.46265415      -0.17231333       0.08765933
H        5.06032715       0.00980085       0.18611536      -0.05998499       0.19811584       0.40091311       0.68167425       0.09463686       0.12253253
H        2.10788101       0.21093149       0.00169904       0.09223828      -0.22963216      -0.17298619       0.43376234      -0.64218608      -0.05127214
H        3.11491873      -0.96129285      -1.21435546      -0.76264668       0.09441248       0.12720430      -0.45521791      -0.33059846       0.94524814
9
Lattice="13.0 0.0 0.0 0.0 9.0 0.0 0.0 0.0 9.0" Properties=species:S:1:pos:R:3:momenta:R:3:forces:R:3 EPS_SCF=1e-06 energy=-1400.9638211907252 units=gap_units Integrated_spin_density=6.55109e-05 opt_dir=/home/tks32/dft_pbe/apr_8_opt_fragments_subset/singlepoint_1_CO2 time=10.0 free_energy=-1400.9638211907252 pbc="T T T"
C        0.27963611       0.00237228      -0.02054385       2.77249412       0.08529656       0.01220406      -0.87427054       2.24302253       0.86323670
O        0.19996579      -1.12312978      -0.32217767       4.91895693      -2.08326526      -0.62353781      -0.35587576      -0.90473050      -0.56938372
O        0.43779608       1.13570764       0.34167342       4.72341975       2.39874287       0.71189124      -1.46500840      -1.11929426      -0.34719573
C        4.02930463       0.34964418       0.24162019      -6.44971211      -0.17985719      -0.55472098       0.62427823      -0.16229735      -0.06546804
C        2.96157352      -0.39587979      -0.25475209      -5.18922382      -0.13882339       0.30907071       0.90306782       0.94474551      -0.82801169
H        3.84798346       1.27499136       0.83143484      -0.04554149      -0.14498976      -0.21003843       0.45133590      -0.09028680       0.13070743
H        5.06369357       0.01030887       0.18673734      -0.05998499       0.19811584       0.40091311       0.81152347       0.08254947       0.13255099
H        2.11028454       0.20750526       0.00140033       0.09223828      -0.22963216      -0.17298619       0.32230857      -0.56824169      -0.02342033
H        3.11251641      -0.96290849      -1.20915592      -0.76264668       0.09441248       0.12720430      -0.41735930      -0.42546690       0.70698439
9
Lattice="13.0 0.0 0.0 0.0 9.0 0.0 0.0 0.0 9.0" Properties=species:S:1:pos:R:3:momenta:R:3:forces:R:3 EPS_SCF=1e-06 energy=-1400.9736419884837 units=gap_units Integrated_spin_density=6.55109e-05 opt_dir=/home/tks32/dft_pbe/apr_8_opt_fragments_subset/singlepoint_1_CO2 time=10.0 free_energy=-1400.9736419884837 pbc="T T T"
C        0.27908969       0.00377417      -0.02000432       2.77249412       0.08529656       0.01220406      -0.90745468       1.90839484       0.76416892
O        0.19974336      -1.12369524      -0.32253353       4.91895693      -2.08326526      -0.62353781      -0.34766928      -0.72842241      -0.52104821
O        0.43688045       1.13500808       0.34145642       4.72341975       2.39874287       0.71189124      -1.45169123      -0.95860015      -0.29501964
C        4.02969480       0.34954274       0.24157928      -6.44971211      -0.17985719      -0.55472098       0.64801815      -0.14767936      -0.05689803
C        2.96213794      -0.39528933      -0.25526960      -5.18922382      -0.13882339       0.30907071       0.89015010       0.92911651      -0.82504013
H        3.84826555       1.27493493       0.83151653      -0.04554149      -0.14498976      -0.21003843       0.45060820      -0.09445948       0.12795338
H        5.06420077       0.01036046       0.18682019      -0.05998499       0.19811584       0.40091311       0.80861408       0.08327996       0.13216890
H        2.11048598       0.20715011       0.00138569       0.09223828      -0.22963216      -0.17298619       0.31944156      -0.56006286      -0.02004492
H        3.11225556      -0.96317441      -1.20871406      -0.76264668       0.09441248       0.12720430      -0.41001689      -0.43156705       0.69375972
9
Lattice="13.0 0.0 0.0 0.0 9.0 0.0 0.0 0.0 9.0" Properties=species:S:1:pos:R:3:momenta:R:3:forces:R:3 EPS_SCF=1e-06 energy=-1400.9905133153475 units=gap_units Integrated_spin_density=6.55109e-05 opt_dir=/home/tks32/dft_pbe/apr_8_opt_fragments_subset/singlepoint_1_CO2 time=10.0 free_energy=-1400.9905133153475 pbc="T T T"
C        0.27796954       0.00635735      -0.01898960       2.77249412       0.08529656       0.01220406      -0.96837516       1.29233960       0.58077935
O        0.19930244      -1.12470855      -0.32321461       4.91895693      -2.08326526      -0.62353781      -0.33325746      -0.41022365      -0.43334097
O        0.43505115       1.13371469       0.34105684       4.72341975       2.39874287       0.71189124      -1.42716299      -0.65597317      -0.19664526
C        4.03049468       0.34934919       0.24150305      -6.44971211      -0.17985719      -0.55472098       0.69268512      -0.12035870      -0.04103682
C        2.96326230      -0.39411453      -0.25630666      -5.18922382      -0.13882339       0.30907071       0.86629464       0.89947323      -0.81823108
H        3.84883145       1.27481873       0.83167866      -0.04554149      -0.14498976      -0.21003843       0.44919552      -0.10242356       0.12265028
H        5.06521718       0.01046456       0.18698627      -0.05998499       0.19811584       0.40091311       0.80322518       0.08470161       0.13142891
H        2.11088848       0.20644265       0.00135864       0.09223828      -0.22963216      -0.17298619       0.31323576      -0.54405464      -0.01335407
H        3.11173688      -0.96371258      -1.20783598      -0.76264668       0.09441248       0.12720430      -0.39584060      -0.44348070       0.66774967
9
Lattice="13.0 0.0 0.0 0.0 9.0 0.0 0.0 0.0 9.0" Properties=species:S:1:pos:R:3:momenta:R:3:forces:R:3 EPS_SCF=1e-06 energy=-1401.0105958484967 units=gap_units Integrated_spin_density=6.55109e-05 opt_dir=/home/tks32/dft_pbe/apr_8_opt_fragments_subset/singlepoint_1_CO2 time=10.0 free_energy=-1401.0105958484967 pbc="T T T"
C        0.27621243       0.00968175      -0.01762715       2.77249412       0.08529656       0.01220406      -1.04609434       0.50131265       0.34299257
O        0.19864785      -1.12593781      -0.32416275       4.91895693      -2.08326526      -0.62353781      -0.31616139      -0.01454984      -0.32318736
O        0.43230097       1.13204328       0.34054512       4.72341975       2.39874287       0.71189124      -1.39627021      -0.25338966      -0.06544801
C        4.03175032       0.34908190       0.24140271      -6.44971211      -0.17985719      -0.55472098       0.75278210      -0.08404081      -0.02040605
C        2.96494425      -0.39236154      -0.25787286      -5.18922382      -0.13882339       0.30907071       0.83540619       0.85884961      -0.80581971
H        3.84968819       1.27463494       0.83191943      -0.04554149      -0.14498976      -0.21003843       0.44716286      -0.11342893       0.11519448
H        5.06675319       0.01062377       0.18723739      -0.05998499       0.19811584       0.40091311       0.79624328       0.08673651       0.13037750
H        2.11149300       0.20538516       0.00132396       0.09223828      -0.22963216      -0.17298619       0.30271618      -0.52082073      -0.00343188
H        3.11096391      -0.96453993      -1.20652925      -0.76264668       0.09441248       0.12720430      -0.37578468      -0.46066881       0.62972845
9
Lattice="13.0 0.0 0.0 0.0 9.0 0.0 0.0 0.0 9.0" Properties=species:S:1:pos:R:3:momenta:R:3:forces:R:3 EPS_SCF=1e-06 energy=-1401.0315172776436 units=gap_units Integrated_spin_density=6.55109e-05 opt_dir=/home/tks32/dft_pbe/apr_8_opt_fragments_subset/singlepoint_1_CO2 time=10.0 free_energy=-1401.0315172776436 pbc="T T T"
C        0.27372836       0.01310629      -0.01610499       2.77249412       0.08529656       0.01220406      -1.12457375      -0.30899375       0.09547794
O        0.19778591      -1.12705670      -0.32529494       4.91895693      -2.08326526      -0.62353781      -0.30053900       0.37361349      -0.21325834
O        0.42862097       1.13032037       0.34002810       4.72341975       2.39874287       0.71189124      -1.36726102       0.17849723       0.07603887
C        4.03352997       0.34876882       0.24129479      -6.44971211      -0.17985719      -0.55472098       0.82023276      -0.04405027       0.00132506
C        2.96717887      -0.39004275      -0.25997778      -5.18922382      -0.13882339       0.30907071       0.80316924       0.81153890      -0.78541061
H        3.85084510       1.27437165       0.83223553      -0.04554149      -0.14498976      -0.21003843       0.44459766      -0.12634239       0.10618589
H        5.06882268       0.01084189       0.18757591      -0.05998499       0.19811584       0.40091311       0.78904984       0.08925350       0.12908265
H        2.11229827       0.20398399       0.00128979       0.09223828      -0.22963216      -0.17298619       0.28659181      -0.49125632       0.00957436
H        3.10994397      -0.96568206      -1.20480981      -0.76264668       0.09441248       0.12720430      -0.35126755      -0.48226038       0.58098418
9
Lattice="13.0 0.0 0.0 0.0 9.0 0.0 0.0 0.0 9.0" Properties=species:S:1:pos:R:3:momenta:R:3:forces:R:3 EPS_SCF=1e-06 energy=-1401.0540309843518 units=gap_units Integrated_spin_density=6.55109e-05 opt_dir=/home/tks32/dft_pbe/apr_8_opt_fragments_subset/singlepoint_1_CO2 time=10.0 free_energy=-1401.0540309843518 pbc="T T T"
C        0.27045273       0.01590263      -0.01464674       2.77249412       0.08529656       0.01220406      -1.18561012      -0.96080389      -0.10954785
O        0.19673224      -1.12771820      -0.32651114       4.91895693      -2.08326526      -0.62353781      -0.28986785       0.66846117      -0.12697597
O        0.42404456       1.12893482       0.33963309       4.72341975       2.39874287       0.71189124      -1.35068339       0.54757024       0.19839571
C        4.03589018       0.34844632       0.24119889      -6.44971211      -0.17985719      -0.55472098       0.88517401      -0.00666641       0.01986722
C        2.96993278      -0.38720535      -0.26259853      -5.18922382      -0.13882339       0.30907071       0.77619219       0.76273548      -0.75496640
H        3.85229748       1.27401785       0.83261822      -0.04554149      -0.14498976      -0.21003843       0.44166853      -0.13970242       0.09642758
H        5.07141490       0.01112075       0.18799994      -0.05998499       0.19811584       0.40091311       0.78340579       0.09204324       0.12762859
H        2.11328805       0.20226865       0.00126789       0.09223828      -0.22963216      -0.17298619       0.26394511      -0.45678623       0.02527889
H        3.10870119      -0.96715595      -1.20272503      -0.76264668       0.09441248       0.12720430      -0.32422427      -0.50685118       0.52389222
9
Lattice="13.0 0.0 0.0 0.0 9.0 0.0 0.0 0.0 9.0" Properties=species:S:1:pos:R:3:momenta:R:3:forces:R:3 EPS_SCF=1e-06 energy=-1401.081071652418 units=gap_units Integrated_spin_density=6.55109e-05 opt_dir=/home/tks32/dft_pbe/apr_8_opt_fragments_subset/singlepoint_1_CO2 time=10.0 free_energy=-1401.081071652418 pbc="T T T"
C        0.26638360       0.01751084      -0.01343790       2.77249412       0.08529656       0.01220406      -1.21553197      -1.31608202      -0.23045064
O        0.19550984      -1.12768148      -0.32772577       4.91895693      -2.08326526      -0.62353781      -0.28560265       0.81224113      -0.08074123
O        0.41864866       1.12820558       0.33946519       4.72341975       2.39874287       0.71189124      -1.35535789       0.77311220       0.27584536
C        4.03885134       0.34814976       0.24113137      -6.44971211      -0.17985719      -0.55472098       0.93869605       0.02271493       0.03161764
C        2.97314523      -0.38393048      -0.26567107      -5.18922382      -0.13882339       0.30907071       0.75987199       0.71710828      -0.71385599
H        3.85402224       1.27356733       0.83305381      -0.04554149      -0.14498976      -0.21003843       0.43868610      -0.15210690       0.08672675
H        5.07448866       0.01145875       0.18850225      -0.05998499       0.19811584       0.40091311       0.78100065       0.09484797       0.12608398
H        2.11442843       0.20029292       0.00127208       0.09223828      -0.22963216      -0.17298619       0.23491535      -0.41916782       0.04303689
H        3.10727611      -0.96896171      -1.20035336      -0.76264668       0.09441248       0.12720430      -0.29667763      -0.53266775       0.46173725
9
Lattice="13.0 0.0 0.0 0.0 9.0 0.0 0.0 0.0 9.0" Properties=species:S:1:pos:R:3:momenta:R:3:forces:R:3 EPS_SCF=1e-06 energy=-1401.1149539367568 units=gap_units Integrated_spin_density=6.55109e-05 opt_dir=/home/tks32/dft_pbe/apr_8_opt_fragments_subset/singlepoint_1_CO2 time=10.0 free_energy=-1401.1149539367568 pbc="T T T"
C        0.26155104       0.01769107      -0.01257183       2.77249412       0.08529656       0.01220406      -1.20928765      -1.31355974      -0.24786691
O        0.19413470      -1.12686638      -0.32889668       4.91895693      -2.08326526      -0.62353781      -0.28709255       0.78472713      -0.08105675
O        0.41248737       1.12829364       0.33957966       4.72341975       2.39874287       0.71189124      -1.38520343       0.81349138       0.29517049
C        4.04242020       0.34790473       0.24110104      -6.44971211      -0.17985719      -0.55472098       0.97481842       0.04083850       0.03445143
C        2.97676806      -0.38029265      -0.26912368      -5.18922382      -0.13882339       0.30907071       0.75702564       0.67753899      -0.66282008
H        3.85599690       1.27301541       0.83352935      -0.04554149      -0.14498976      -0.21003843       0.43611422      -0.16257427       0.07767222
H        5.07800701       0.01185427       0.18907573      -0.05998499       0.19811584       0.40091311       0.78314422       0.09742243       0.12447237
H        2.11568095       0.19811118       0.00131729       0.09223828      -0.22963216      -0.17298619       0.20065641      -0.37995254       0.06213154
H        3.10570789      -0.97109976      -1.19777428      -0.76264668       0.09441248       0.12720430      -0.27017528      -0.55793187       0.39784571
9
Lattice="13.0 0.0 0.0 0.0 9.0 0.0 0.0 0.0 9.0" Properties=species:S:1:pos:R:3:momenta:R:3:forces:R:3 EPS_SCF=1e-06 energy=-1401.160111710232 units=gap_units Integrated_spin_density=6.55109e-05 opt_dir=/home/tks32/dft_pbe/apr_8_opt_fragments_subset/singlepoint_1_CO2 time=10.0 free_energy=-1401.160111710232 pbc="T T T"
C        0.25534546       0.01632560      -0.01200575       2.77249412       0.08529656       0.01220406      -1.16382901      -0.91397010      -0.15117694
O        0.19243587      -1.12513710      -0.33015116       4.91895693      -2.08326526      -0.62353781      -0.29290226       0.56867876      -0.13299387
O        0.40475958       1.12933696       0.34003992       4.72341975       2.39874287       0.71189124      -1.44570193       0.64806320       0.25075636
C        4.04709912       0.34771014       0.24111151      -6.44971211      -0.17985719      -0.55472098       0.99120891       0.04643289       0.02641202
C        2.98124443      -0.37589484      -0.27332080      -5.18922382      -0.13882339       0.30907071       0.76978041       0.64186048      -0.59685878
H        3.85846441       1.27227793       0.83409142      -0.04554149      -0.14498976      -0.21003843       0.43377215      -0.17158095       0.06860027
H        5.08241065       0.01236034       0.18978977      -0.05998499       0.19811584       0.40091311       0.79188340       0.09975477       0.12257033
H        2.11715679       0.19550468       0.00143508       0.09223828      -0.22963216      -0.17298619       0.15892830      -0.33602479       0.08399349
H        3.10383780      -0.97387220      -1.19475339      -0.76264668       0.09441248       0.12720430      -0.24313998      -0.58321427       0.32869711
9
Lattice="13.0 0.0 0.0 0.0 9.0 0.0 0.0 0.0 9.0" Properties=species:S:1:pos:R:3:momenta:R:3:forces:R:3 EPS_SCF=1e-06 energy=-1401.215540871731 units=gap_units Integrated_spin_density=6.55109e-05 opt_dir=/home/tks32/dft_pbe/apr_8_opt_fragments_subset/singlepoint_1_CO2 time=10.0 free_energy=-1401.215540871731 pbc="T T T"
C        0.24747267       0.01361963      -0.01166845       2.77249412       0.08529656       0.01220406      -1.08483945      -0.15851104       0.04800952
O        0.19031868      -1.12258158      -0.33159129       4.91895693      -2.08326526      -0.62353781      -0.29917761       0.18329612      -0.23237049
O        0.39496097       1.13133011       0.34086720       4.72341975       2.39874287       0.71189124      -1.53945637       0.29854847       0.14918685
C        4.05320337       0.34758601       0.24116097      -6.44971211      -0.17985719      -0.55472098       0.98209536       0.03712184       0.00572484
C        2.98682023      -0.37058624      -0.27836391      -5.18922382      -0.13882339       0.30907071       0.79871146       0.61013638      -0.51695220
H        3.86155192       1.27129308       0.83475002      -0.04554149      -0.14498976      -0.21003843       0.43696713      -0.17891699       0.06007071
H        5.08794706       0.01300954       0.19067886      -0.05998499       0.19811584       0.40091311       0.80968262       0.10147716       0.12014778
H        2.11885470       0.19242406       0.00167612       0.09223828      -0.22963216      -0.17298619       0.11226037      -0.28769084       0.10805719
H        3.10162451      -0.97748310      -1.19127292      -0.76264668       0.09441248       0.12720430      -0.21624352      -0.60546110       0.25812579
9
Lattice="13.0 0.0 0.0 0.0 9.0 0.0 0.0 0.0 9.0" Properties=species:S:1:pos:R:3:momenta:R:3:forces:R:3 EPS_SCF=1e-06 energy=-1401.2803081854972 units=gap_units Integrated_spin_density=6.55109e-05 opt_dir=/home/tks32/dft_pbe/apr_8_opt_fragments_subset/singlepoint_1_CO2 time=10.0 free_energy=-1401.2803081854972 pbc="T T T"
C        0.23762191       0.01063680      -0.01124353       2.77249412       0.08529656       0.01220406      -0.99664857       0.70099392       0.27596452
O        0.18765558      -1.11970143      -0.33345703       4.91895693      -2.08326526      -0.62353781      -0.29862845      -0.24643090      -0.34499403
O        0.38234476       1.13386895       0.34196848       4.72341975       2.39874287       0.71189124      -1.65796198      -0.10966746       0.02906568
C        4.06110624       0.34753264       0.24122081      -6.44971211      -0.17985719      -0.55472098       0.94607113       0.01460334      -0.02599684
C        2.99385402      -0.36417207      -0.28433948      -5.18922382      -0.13882339       0.30907071       0.83797457       0.57823671      -0.42899643
H        3.86543681       1.26997956       0.83551641      -0.04554149      -0.14498976      -0.21003843       0.45366467      -0.18524295       0.05241257
H        5.09496241       0.01384445       0.19178687      -0.05998499       0.19811584       0.40091311       0.83829163       0.10207368       0.11666843
H        2.12075040       0.18882666       0.00211843       0.09223828      -0.22963216      -0.17298619       0.06674506      -0.23504246       0.13308762
H        3.09902198      -0.98220405      -1.18733436      -0.76264668       0.09441248       0.12720430      -0.18950807      -0.61952390       0.19278849
9
Lattice="13.0 0.0 0.0 0.0 9.0 0.0 0.0 0.0 9.0" Properties=species:S:1:pos:R:3:momenta:R:3:forces:R:3 EPS_SCF=1e-06 energy=-1401.359713252356 units=gap_units Integrated_spin_density=6.55109e-05 opt_dir=/home/tks32/dft_pbe/apr_8_opt_fragments_subset/singlepoint_1_CO2 time=10.0 free_energy=-1401.359713252356 pbc="T T T"
C        0.22558508       0.00925828      -0.01019780       2.77249412       0.08529656       0.01220406      -0.93431148       1.20840043       0.39806358
O        0.18433551      -1.11739760      -0.33608988       4.91895693      -2.08326526      -0.62353781      -0.28509653      -0.47847472      -0.40143973
O        0.36606655       1.13614286       0.34312804       4.72341975       2.39874287       0.71189124      -1.76243690      -0.36558195      -0.04273974
C        4.07109400       0.34751263       0.24122149      -6.44971211      -0.17985719      -0.55472098       0.88981417      -0.01245028      -0.06109385
C        3.00273425      -0.35649428      -0.29124434      -5.18922382      -0.13882339       0.30907071       0.87224401       0.53633395      -0.34596437
H        3.87032081       1.26825624       0.83639609      -0.04554149      -0.14498976      -0.21003843       0.47410620      -0.19332300       0.04260280
H        5.10382504       0.01490442       0.19315110      -0.05998499       0.19811584       0.40091311       0.87668621       0.10113744       0.11129512
H        2.12278418       0.18472229       0.00285853       0.09223828      -0.22963216      -0.17298619       0.03175898      -0.17845556       0.15652810
H        3.09600869      -0.98829333      -1.18298663      -0.76264668       0.09441248       0.12720430      -0.16276467      -0.61758631       0.14274808
9
Lattice="13.0 0.0 0.0 0.0 9.0 0.0 0.0 0.0 9.0" Properties=species:S:1:pos:R:3:momenta:R:3:forces:R:3 EPS_SCF=1e-06 energy=-1401.462681743341 units=gap_units Integrated_spin_density=6.55109e-05 opt_dir=/home/tks32/dft_pbe/apr_8_opt_fragments_subset/singlepoint_1_CO2 time=10.0 free_energy=-1401.462681743341 pbc="T T T"
C        0.21113895       0.01109184      -0.00810245       2.77249412       0.08529656       0.01220406      -0.91512650       0.97580146       0.29707529
O        0.18027828      -1.11637558      -0.33977230       4.91895693      -2.08326526      -0.62353781      -0.25879304      -0.30283532      -0.33762075
O        0.34520716       1.13743448       0.34416769       4.72341975       2.39874287       0.71189124      -1.82413494      -0.29707053      -0.01358186
C        4.08338467       0.34745972       0.24106017      -6.44971211      -0.17985719      -0.55472098       0.82279299      -0.03060403      -0.08754946
C        3.01387708      -0.34743781      -0.29902747      -5.18922382      -0.13882339       0.30907071       0.87685402       0.46892203      -0.28484986
H        3.87643431       1.26603006       0.83738375      -0.04554149      -0.14498976      -0.21003843       0.49886673      -0.20597287       0.02866510
H        5.11496214       0.01622657       0.19480271      -0.05998499       0.19811584       0.40091311       0.92005524       0.09871325       0.10298276
H        2.12489064       0.18016797       0.00400951       0.09223828      -0.22963216      -0.17298619       0.01666518      -0.11838489       0.17424282
H        3.09258087      -0.99598573      -1.17828501      -0.76264668       0.09441248       0.12720430      -0.13717968      -0.58856910       0.12063598
9
Lattice="13.0 0.0 0.0 0.0 9.0 0.0 0.0 0.0 9.0" Properties=species:S:1:pos:R:3:momenta:R:3:forces:R:3 EPS_SCF=1e-06 energy=-1401.5886978465116 units=gap_units Integrated_spin_density=6.55109e-05 opt_dir=/home/tks32/dft_pbe/apr_8_opt_fragments_subset/singlepoint_1_CO2 time=10.0 free_energy=-1401.5886978465116 pbc="T T T"
C        0.19376641       0.01610840      -0.00504516       2.77249412       0.08529656       0.01220406      -0.91399291       0.02778677      -0.02445122
O        0.17539334      -1.11634871      -0.34454197       4.91895693      -2.08326526      -0.62353781      -0.22798488       0.24401436      -0.15844712
O        0.31847792       1.13774855       0.34515813       4.72341975       2.39874287       0.71189124      -1.82266959       0.09951832       0.11692736
C        4.09830971       0.34730696       0.24061326      -6.44971211      -0.17985719      -0.55472098       0.74687557      -0.02752250      -0.09361541
C        3.02783638      -0.33688944      -0.30770635      -5.18922382      -0.13882339       0.30907071       0.82354001       0.35899926      -0.25922723
H        3.88415122       1.26314048       0.83846061      -0.04554149      -0.14498976      -0.21003843       0.52734039      -0.22474981       0.00889578
H        5.12905703       0.01786547       0.19678353      -0.05998499       0.19811584       0.40091311       0.95875528       0.09576434       0.09047729
H        2.12704191       0.17524745       0.00572505       0.09223828      -0.22963216      -0.17298619       0.02535330      -0.05627590       0.17945309
H        3.08872020      -1.00556765      -1.17321050      -0.76264668       0.09441248       0.12720430      -0.11721715      -0.51753485       0.13998746
9
Lattice="13.0 0.0 0.0 0.0 9.0 0.0 0.0 0.0 9.0" Properties=species:S:1:pos:R:3:momenta:R:3:forces:R:3 EPS_SCF=1e-06 energy=-1401.7318446766717 units=gap_units Integrated_spin_density=6.55109e-05 opt_dir=/home/tks32/dft_pbe/apr_8_opt_fragments_subset/singlepoint_1_CO2 time=10.0 free_energy=-1401.7318446766717 pbc="T T T"
C        0.17267220       0.02122212      -0.00209997       2.77249412       0.08529656       0.01220406      -0.84392555      -0.85078684      -0.32929119
O        0.16958204      -1.11531183      -0.34995055       4.91895693      -2.08326526      -0.62353781      -0.19532769       0.72337574       0.00780242