9
Lattice="13.0 0.0 0.0 0.0 9.0 0.0 0.0 0.0 9.0" Properties=species:S:1:pos:R:3:momenta:R:3:forces:R:3 EPS_SCF=1e-06 energy=-1399.3223397097595 units=gap_units Integrated_spin_density=6.55109e-05 opt_dir=/home/tks32/dft_pbe/apr_8_opt_fragments_subset/singlepoint_1_CO2 time=115.0 free_energy=-1399.3223397097595 pbc="T T T"
C       -0.06314747      -0.27931978       0.14803891       0.94001132      -2.08931439      -1.22562499      -1.95918753      -1.20749105      -2.07015218
O       -1.22581400      -0.27032694      -0.16652773      -2.17189690       3.04842559       0.88618876       1.92908042      -0.02202489       1.04929747
O        1.17143489      -0.40035571       0.03412885      -0.23056887      -0.84196220       0.15820490       1.29815879       1.55017548       1.25264317
C        4.23663704       1.10961653       0.07842578       1.42604677       1.14575241      -0.27770236      -2.15563521      -0.41512989      -0.47777042
C        4.16618152      -0.18370986      -0.10283488      -0.15969562      -1.67285277       0.38973036      -2.39555734       0.56368837       0.32560007
H        3.23094220       1.50463311      -0.28689682       0.27736724       0.42454392       0.16226895       0.85846035       0.41894611       0.19270253
H        4.80595507       1.93776225       0.55042673       0.25639163       0.19109371      -0.12884122       0.47085579      -1.03734697      -0.07899212
H        1.54105957       0.28671324       0.73536973      -0.14142543      -0.41968903      -0.32092064       0.61063663       0.28705850      -0.12527258
H        3.23773946      -0.78853652      -0.37059423      -0.19623014       0.21400275       0.35669624       1.34318811      -0.13787565      -0.06805594
9
Lattice="13.0 0.0 0.0 0.0 9.0 0.0 0.0 0.0 9.0" Properties=species:S:1:pos:R:3:momenta:R:3:forces:R:3 EPS_SCF=1e-06 energy=-1399.5382966792563 units=gap_units Integrated_spin_density=6.55109e-05 opt_dir=/home/tks32/dft_pbe/apr_8_opt_fragments_subset/singlepoint_1_CO2 time=115.0 free_energy=-1399.5382966792563 pbc="T T T"
C       -0.08273935      -0.29139469       0.12733739       0.94001132      -2.08931439      -1.22562499       3.48598437      -1.07229157      -0.87180999
O       -1.20652320      -0.27054719      -0.15603476      -2.17189690       3.04842559       0.88618876      -1.69051429      -0.06443256       0.00685092
O        1.18441648      -0.38485396       0.04665528      -0.23056887      -0.84196220       0.15820490      -0.45787853       1.11313967       0.75905013
C        4.21508069       1.10546523       0.07364808       1.42604677       1.14575241      -0.27770236      -1.20419162      -0.56318756      -0.07017801
C        4.14222595      -0.17807298      -0.09957888      -0.15969562      -1.67285277       0.38973036      -1.85550225       1.05725231       0.50634945
H        3.23952680       1.50882257      -0.28496979       0.27736724       0.42454392       0.16226895       0.16999800       0.69960132      -0.04682150
H        4.81066363       1.92738878       0.54963681       0.25639163       0.19109371      -0.12884122       0.23015280      -1.32928654      -0.25671696
H        1.54716594       0.28958383       0.73411700      -0.14142543      -0.41968903      -0.32092064       0.55028722       0.59489355       0.18403361
H        3.25117134      -0.78991528      -0.37127479      -0.19623014       0.21400275       0.35669624       0.77166430      -0.43568861      -0.21075765
9
Lattice="13.0 0.0 0.0 0.0 9.0 0.0 0.0 0.0 9.0" Properties=species:S:1:pos:R:3:momenta:R:3:forces:R:3 EPS_SCF=1e-06 energy=-1399.832329892081 units=gap_units Integrated_spin_density=6.55109e-05 opt_dir=/home/tks32/dft_pbe/apr_8_opt_fragments_subset/singlepoint_1_CO2 time=115.0 free_energy=-1399.832329892081 pbc="T T T"
C       -0.06166837      -0.31416739       0.09902662       0.94001132      -2.08931439      -1.22562499       1.24604137      -0.45796071      -0.60568441
O       -1.20793066      -0.27146079      -0.14651501      -2.17189690       3.04842559       0.88618876      -0.08651344      -0.25477948       0.20975740
O        1.19101624      -0.35854358       0.06635654      -0.23056887      -0.84196220       0.15820490       0.08537971       0.01743798      -0.42258972
C        4.18231025       1.09547619       0.06856898       1.42604677       1.14575241      -0.27770236      -0.01198780      -0.46897176       0.51653266
C        4.10006494      -0.16126148      -0.09102666      -0.15969562      -1.67285277       0.38973036      -1.01367683       1.25174099       0.71482838
H        3.24914037       1.52036051      -0.28375531       0.27736724       0.42454392       0.16226895      -0.80699681       1.15657623      -0.39904656
H        4.81745664       1.90329405       0.54607564       0.25639163       0.19109371      -0.12884122      -0.06489606      -1.59738187      -0.43140731
H        1.55877131       0.29877225       0.73503281      -0.14142543      -0.41968903      -0.32092064       0.66247885       1.24925011       0.84437107
H        3.27182755      -0.79599346      -0.37422726      -0.19623014       0.21400275       0.35669624      -0.00982900      -0.89591148      -0.42676151
9
Lattice="13.0 0.0 0.0 0.0 9.0 0.0 0.0 0.0 9.0" Properties=species:S:1:pos:R:3:momenta:R:3:forces:R:3 EPS_SCF=1e-06 energy=-1400.0162999404085 units=gap_units Integrated_spin_density=6.55109e-05 opt_dir=/home/tks32/dft_pbe/apr_8_opt_fragments_subset/singlepoint_1_CO2 time=115.0 free_energy=-1400.0162999404085 pbc="T T T"
C       -0.02735170      -0.34030546       0.06608414       0.94001132      -2.08931439      -1.22562499      -3.03530119       0.27034034      -0.36200827
O       -1.21026333      -0.27542222      -0.13536278      -2.17189690       3.04842559       0.88618876       2.67278413      -0.58039608       0.44628932
O        1.19800801      -0.33464938       0.07888084      -0.23056887      -0.84196220       0.15820490       1.61878467      -0.35299227      -0.90698240
C        4.15266916       1.08070773       0.07036212       1.42604677       1.14575241      -0.27770236       0.41841007       2.50228162       0.97371107
C        4.04963027      -0.13070812      -0.07452208      -0.15969562      -1.67285277       0.38973036      -0.62891504      -1.89973589       0.36968274
H        3.24784938       1.54499513      -0.28757903       0.27736724       0.42454392       0.16226895      -1.03494992       1.34058980      -0.51265356
H        4.82277074       1.86192706       0.53755511       0.25639163       0.19109371      -0.12884122      -0.11642529      -1.46234526      -0.36018686
H        1.57737872       0.32243415       0.74626074      -0.14142543      -0.41968903      -0.32092064       0.36139803       1.21079589       0.83873061
H        3.29029704      -0.81250256      -0.38214272      -0.19623014       0.21400275       0.35669624      -0.25578545      -1.02853813      -0.48658265
9
Lattice="13.0 0.0 0.0 0.0 9.0 0.0 0.0 0.0 9.0" Properties=species:S:1:pos:R:3:momenta:R:3:forces:R:3 EPS_SCF=1e-06 energy=-1400.0962118064244 units=gap_units Integrated_spin_density=6.55109e-05 opt_dir=/home/tks32/dft_pbe/apr_8_opt_fragments_subset/singlepoint_1_CO2 time=115.0 free_energy=-1400.0962118064244 pbc="T T T"
C       -0.03493996      -0.33962961       0.06517911       0.94001132      -2.08931439      -1.22562499      -0.95055095       0.20419788      -0.16287510
O       -1.20358137      -0.27687321      -0.13424705      -2.17189690       3.04842559       0.88618876       1.49634521      -0.51375169       0.25174541
O        1.20205498      -0.33553186       0.07661338      -0.23056887      -0.84196220       0.15820490       0.82408398      -0.18946655      -0.72210743
C        4.15371518       1.08696343       0.07279640       1.42604677       1.14575241      -0.27770236       0.06309887       1.15356211       0.64585368
C        4.04805798      -0.13545746      -0.07359787      -0.15969562      -1.67285277       0.38973036      -0.46799107      -0.64454796       0.53838583
H        3.24526201       1.54834660      -0.28886067       0.27736724       0.42454392       0.16226895      -0.87762985       1.27270692      -0.45107917
H        4.82247968       1.85827120       0.53665465       0.25639163       0.19109371      -0.12884122       0.01902966      -1.25698929      -0.24603154
H        1.57828221       0.32546114       0.74835757      -0.14142543      -0.41968903      -0.32092064       0.23335893       1.02673067       0.65420459
H        3.28965757      -0.81507391      -0.38335918      -0.19623014       0.21400275       0.35669624      -0.33974477      -1.05244210      -0.50809627
9
Lattice="13.0 0.0 0.0 0.0 9.0 0.0 0.0 0.0 9.0" Properties=species:S:1:pos:R:3:momenta:R:3:forces:R:3 EPS_SCF=1e-06 energy=-1400.1456678670304 units=gap_units Integrated_spin_density=6.55109e-05 opt_dir=/home/tks32/dft_pbe/apr_8_opt_fragments_subset/singlepoint_1_CO2 time=115.0 free_energy=-1400.1456678670304 pbc="T T T"
C       -0.04454386      -0.33842533       0.06388919       0.94001132      -2.08931439      -1.22562499       1.95792443       0.09116172       0.12858385
O       -1.19320006      -0.27967865      -0.13250810      -2.17189690       3.04842559       0.88618876      -0.30346047      -0.41510044      -0.04678787
O        1.20810259      -0.33687911       0.07246497      -0.23056887      -0.84196220       0.15820490      -0.12949303       0.10445814      -0.39660679
C        4.15484078       1.09596060       0.07687237       1.42604677       1.14575241      -0.27770236      -0.50816113      -0.38794133       0.17061699
C        4.04527694      -0.14161318      -0.07119464      -0.15969562      -1.67285277       0.38973036      -0.31979634       0.69410708       0.70169538
H        3.24037173       1.55507772      -0.29133075       0.27736724       0.42454392       0.16226895      -0.58706345       1.14317489      -0.33815270
H        4.82227327       1.85131200       0.53512611       0.25639163       0.19109371      -0.12884122       0.24947178      -0.91600698      -0.05290419
H        1.57977649       0.33118226       0.75215422      -0.14142543      -0.41968903      -0.32092064       0.04062975       0.71671599       0.34629647
H        3.28809041      -0.82046000      -0.38593703      -0.19623014       0.21400275       0.35669624      -0.40005154      -1.03056905      -0.51274115
9
Lattice="13.0 0.0 0.0 0.0 9.0 0.0 0.0 0.0 9.0" Properties=species:S:1:pos:R:3:momenta:R:3:forces:R:3 EPS_SCF=1e-06 energy=-1400.165808039043 units=gap_units Integrated_spin_density=6.55109e-05 opt_dir=/home/tks32/dft_pbe/apr_8_opt_fragments_subset/singlepoint_1_CO2 time=115.0 free_energy=-1400.165808039043 pbc="T T T"
C       -0.04678001      -0.33704315       0.06314906       0.94001132      -2.08931439      -1.22562499       3.49030621       0.00151724       0.26890599
O       -1.18484995      -0.28356197      -0.13109616      -2.17189690       3.04842559       0.88618876      -1.34923300      -0.35999311      -0.21502473
O        1.21312167      -0.33774979       0.06743350      -0.23056887      -0.84196220       0.15820490      -0.52075782       0.43106969      -0.04189510
C        4.15419084       1.10278850       0.08109910       1.42604677       1.14575241      -0.27770236      -1.06520861      -1.22343675      -0.23526047
C        4.04172746      -0.14488184      -0.06673541      -0.15969562      -1.67285277       0.38973036      -0.35616195       1.24630306       0.71008126
H        3.23404930       1.56487681      -0.29466045       0.27736724       0.42454392       0.16226895      -0.23861732       0.97519205      -0.20486538
H        4.82290390       1.84205107       0.53357729       0.25639163       0.19109371      -0.12884122       0.46992691      -0.58507889       0.13639245
H        1.58125430       0.33867675       0.75670446      -0.14142543      -0.41968903      -0.32092064      -0.12361690       0.39794452       0.03443473
H        3.28537077      -0.82868006      -0.38993505      -0.19623014       0.21400275       0.35669624      -0.30663751      -0.88351782      -0.45276875
9
Lattice="13.0 0.0 0.0 0.0 9.0 0.0 0.0 0.0 9.0" Properties=species:S:1:pos:R:3:momenta:R:3:forces:R:3 EPS_SCF=1e-06 energy=-1400.2258135088346 units=gap_units Integrated_spin_density=6.55109e-05 opt_dir=/home/tks32/dft_pbe/apr_8_opt_fragments_subset/singlepoint_1_CO2 time=115.0 free_energy=-1400.2258135088346 pbc="T T T"
C       -0.03817611      -0.33579457       0.06330087       0.94001132      -2.08931439      -1.22562499       2.70952571      -0.02652004       0.14453819
O       -1.18143882      -0.28815195      -0.13047946      -2.17189690       3.04842559       0.88618876      -0.89599490      -0.37471917      -0.12695566
O        1.21605486      -0.33722222       0.06277774      -0.23056887      -0.84196220       0.15820490      -0.20716707       0.68261263       0.22556368
C        4.15036586       1.10521229       0.08418757       1.42604677       1.14575241      -0.27770236      -1.42310672      -1.35908229      -0.46253329
C        4.03744960      -0.14403277      -0.06056225      -0.15969562      -1.67285277       0.38973036      -0.55792029       1.10816209       0.57118601
H        3.22763331       1.57666222      -0.29828031       0.27736724       0.42454392       0.16226895       0.06824824       0.80683803      -0.09060538
H        4.82490084       1.83193660       0.53259822       0.25639163       0.19109371      -0.12884122       0.57960536      -0.38562524       0.24675595
H        1.58220833       0.34663222       0.76090442      -0.14142543      -0.41968903      -0.32092064      -0.20901900       0.17212054      -0.18081394
H        3.28199041      -0.83876549      -0.39491046      -0.19623014       0.21400275       0.35669624      -0.06417133      -0.62378655      -0.32713555
9
Lattice="13.0 0.0 0.0 0.0 9.0 0.0 0.0 0.0 9.0" Properties=species:S:1:pos:R:3:momenta:R:3:forces:R:3 EPS_SCF=1e-06 energy=-1400.298802584378 units=gap_units Integrated_spin_density=6.55109e-05 opt_dir=/home/tks32/dft_pbe/apr_8_opt_fragments_subset/singlepoint_1_CO2 time=115.0 free_energy=-1400.298802584378 pbc="T T T"
C       -0.02184441      -0.33475491       0.06389563       0.94001132      -2.08931439      -1.22562499       0.28977519      -0.02818796      -0.13279208
O       -1.18120876      -0.29347065      -0.13032682      -2.17189690       3.04842559       0.88618876       0.53804321      -0.41752558       0.12122742
O        1.21803809      -0.33458378       0.05930251      -0.23056887      -0.84196220       0.15820490       0.64851657       0.81381172       0.35176830
C        4.14241266       1.10308592       0.08550113       1.42604677       1.14575241      -0.27770236      -1.47704225      -0.85983947      -0.46477501
C        4.03183112      -0.13975614      -0.05319597      -0.15969562      -1.67285277       0.38973036      -0.83625307       0.42827718       0.32317993
H        3.22207524       1.58982646      -0.30182537       0.27736724       0.42454392       0.16226895       0.27579047       0.66234307      -0.01846248
H        4.82853522       1.82161128       0.53249918       0.25639163       0.19109371      -0.12884122       0.52284801      -0.36963210       0.24247345
H        1.58240444       0.35433769       0.76411128      -0.14142543      -0.41968903      -0.32092064      -0.21205283       0.07639564      -0.26290852
H        3.27874468      -0.84981956      -0.40042522      -0.19623014       0.21400275       0.35669624       0.25037470      -0.30564250      -0.15971102
9
Lattice="13.0 0.0 0.0 0.0 9.0 0.0 0.0 0.0 9.0" Properties=species:S:1:pos:R:3:momenta:R:3:forces:R:3 EPS_SCF=1e-06 energy=-1400.3443738545795 units=gap_units Integrated_spin_density=6.55109e-05 opt_dir=/home/tks32/dft_pbe/apr_8_opt_fragments_subset/singlepoint_1_CO2 time=115.0 free_energy=-1400.3443738545795 pbc="T T T"
C       -0.00606935      -0.33392393       0.06393758       0.94001132      -2.08931439      -1.22562499      -1.78047408      -0.05131852      -0.32864155
O       -1.17900285      -0.29980861      -0.12973909      -2.17189690       3.04842559       0.88618876       1.65623642      -0.43402340       0.30553376
O        1.22223226      -0.32918584       0.05748164      -0.23056887      -0.84196220       0.15820490       1.40060196       0.83426669       0.34479010
C        4.12976750       1.09797784       0.08495667       1.42604677       1.14575241      -0.27770236      -1.21217288       0.18395767      -0.25604781
C        4.02366777      -0.13431610      -0.04536568      -0.15969562      -1.67285277       0.38973036      -1.07615772      -0.65698115       0.02649241
H        3.21809756       1.60413492      -0.30508451       0.27736724       0.42454392       0.16226895       0.35484443       0.56269373       0.00085119
H        4.83374857       1.81094530       0.53331084       0.25639163       0.19109371      -0.12884122       0.30718759      -0.51474882       0.13369502
H        1.58179315       0.36155643       0.76602073      -0.14142543      -0.41968903      -0.32092064      -0.16999633       0.09064182      -0.23179811
H        3.27675367      -0.86090369      -0.40598184      -0.19623014       0.21400275       0.35669624       0.51993061      -0.01448803       0.00512499
9
Lattice="13.0 0.0 0.0 0.0 9.0 0.0 0.0 0.0 9.0" Properties=species:S:1:pos:R:3:momenta:R:3:forces:R:3 EPS_SCF=1e-06 energy=-1400.4020327256778 units=gap_units Integrated_spin_density=6.55109e-05 opt_dir=/home/tks32/dft_pbe/apr_8_opt_fragments_subset/singlepoint_1_CO2 time=115.0 free_energy=-1400.4020327256778 pbc="T T T"
C        0.00194144      -0.33335437       0.06283339       0.94001132      -2.08931439      -1.22562499      -1.84333454      -0.09243613      -0.31239343
O       -1.17126248      -0.30702091      -0.12814846      -2.17189690       3.04842559       0.88618876       1.61763761      -0.41255684       0.29487493
O        1.23087381      -0.32142880       0.05704092      -0.23056887      -0.84196220       0.15820490       1.30686378       0.79016551       0.27354004
C        4.11417482       1.09401978       0.08357695       1.42604677       1.14575241      -0.27770236      -0.83087926       1.01328894      -0.01044128
C        4.01258134      -0.13170294      -0.03822636      -0.15969562      -1.67285277       0.38973036      -1.13130368      -1.42459962      -0.17974529
H        3.21575065       1.61896777      -0.30801478       0.27736724       0.42454392       0.16226895       0.33674584       0.51617693      -0.01814626
H        4.83950800       1.79955727       0.53450590       0.25639163       0.19109371      -0.12884122       0.04793285      -0.68997904      -0.00081796
H        1.58065229       0.36836826       0.76693378      -0.14142543      -0.41968903      -0.32092064      -0.13979778       0.14648934      -0.15770234
H        3.27676842      -0.87092975      -0.41096499      -0.19623014       0.21400275       0.35669624       0.63613517       0.15345091       0.11083161
9
Lattice="13.0 0.0 0.0 0.0 9.0 0.0 0.0 0.0 9.0" Properties=species:S:1:pos:R:3:momenta:R:3:forces:R:3 EPS_SCF=1e-06 energy=-1400.4899503782983 units=gap_units Integrated_spin_density=6.55109e-05 opt_dir=/home/tks32/dft_pbe/apr_8_opt_fragments_subset/singlepoint_1_CO2 time=115.0 free_energy=-1400.4899503782983 pbc="T T T"
C        0.00240065      -0.33316517       0.06047402       0.94001132      -2.08931439      -1.22562499       0.21026571      -0.11451408      -0.07864896
O       -1.15704283      -0.31583327      -0.12537854      -2.17189690       3.04842559       0.88618876       0.34773325      -0.37292632       0.08504898
O        1.24472597      -0.31054659       0.05771334      -0.23056887      -0.84196220       0.15820490       0.32545806       0.66716986       0.14284860
C        4.09537031       1.09420841       0.08216870       1.42604677       1.14575241      -0.27770236      -0.47126764       0.78533951       0.14941997
C        3.99702033      -0.13489015      -0.03188699      -0.15969562      -1.67285277       0.38973036      -0.85920579      -1.03712482      -0.18183893
H        3.21479212       1.63574448      -0.31098930       0.27736724       0.42454392       0.16226895       0.23704490       0.52063328      -0.06800390
H        4.84540411       1.78548648       0.53568569       0.25639163       0.19109371      -0.12884122      -0.19211262      -0.81805927      -0.11725115
H        1.57895621       0.37570573       0.76719850      -0.14142543      -0.41968903      -0.32092064      -0.12354134       0.23488437      -0.04967918
H        3.27936142      -0.88023358      -0.41544909      -0.19623014       0.21400275       0.35669624       0.52562547       0.13459747       0.11810458
9
Lattice="13.0 0.0 0.0 0.0 9.0 0.0 0.0 0.0 9.0" Properties=species:S:1:pos:R:3:momenta:R:3:forces:R:3 EPS_SCF=1e-06 energy=-1400.5473804925025 units=gap_units Integrated_spin_density=6.55109e-05 opt_dir=/home/tks32/dft_pbe/apr_8_opt_fragments_subset/singlepoint_1_CO2 time=115.0 free_energy=-1400.5473804925025 pbc="T T T"
C        0.00407539      -0.33364189       0.05767947       0.94001132      -2.08931439      -1.22562499       2.42652094      -0.08354655       0.18812524
O       -1.14093275      -0.32673033      -0.12213996      -2.17189690       3.04842559       0.88618876      -1.07954776      -0.35207885      -0.14767518
O        1.26034262      -0.29589140       0.05920835      -0.23056887      -0.84196220       0.15820490      -0.62720223       0.43019047      -0.09250121
C        4.07399963       1.09895062       0.08163968       1.42604677       1.14575241      -0.27770236      -0.20953342      -0.47080713       0.20089547
C        3.97661410      -0.14406471      -0.02665878      -0.15969562      -1.67285277       0.38973036      -0.32954687       0.48359527       0.03435399
H        3.21521707       1.65539174      -0.31433180       0.27736724       0.42454392       0.16226895       0.07608882       0.55513686      -0.13788821
H        4.85013342       1.76679586       0.53617489       0.25639163       0.19109371      -0.12884122      -0.35504759      -0.84896438      -0.18147135
H        1.57655863       0.38434031       0.76717271      -0.14142543      -0.41968903      -0.32092064      -0.06707974       0.40101138       0.14078334
H        3.28498017      -0.88867389      -0.41920822      -0.19623014       0.21400275       0.35669624       0.16534786      -0.11453706      -0.00462210
9
Lattice="13.0 0.0 0.0 0.0 9.0 0.0 0.0 0.0 9.0" Properties=species:S:1:pos:R:3:momenta:R:3:forces:R:3 EPS_SCF=1e-06 energy=-1400.6147603777024 units=gap_units Integrated_spin_density=6.55109e-05 opt_dir=/home/tks32/dft_pbe/apr_8_opt_fragments_subset/singlepoint_1_CO2 time=115.0 free_energy=-1400.6147603777024 pbc="T T T"
C        0.02090673      -0.33463717       0.05608283       0.94001132      -2.08931439      -1.22562499       1.37038313      -0.06864898       0.11224086
O       -1.13169744      -0.33974332      -0.11984989      -2.17189690       3.04842559       0.88618876      -0.43001425      -0.35260544      -0.05717505
O        1.27191627      -0.27866130       0.06011340      -0.23056887      -0.84196220       0.15820490      -0.43807222       0.18256289      -0.38125702
C        4.05148595       1.10071248       0.08237072       1.42604677       1.14575241      -0.27770236      -0.02306648      -1.13493648       0.25249187
C        3.95430706      -0.15014435      -0.02125663      -0.15969562      -1.67285277       0.38973036       0.10555738       1.39963524       0.18375464
H        3.21611438       1.67835605      -0.31851021       0.27736724       0.42454392       0.16226895      -0.02299620       0.53668971      -0.17995534
H        4.85260617       1.74294384       0.53552577       0.25639163       0.19109371      -0.12884122      -0.46210115      -0.82661643      -0.20993788
H        1.57376043       0.39541442       0.76802724      -0.14142543      -0.41968903      -0.32092064       0.04812417       0.62496665       0.40651804
H        3.29158873      -0.89776432      -0.42296688      -0.19623014       0.21400275       0.35669624      -0.14781438      -0.36104716      -0.12668011
9
Lattice="13.0 0.0 0.0 0.0 9.0 0.0 0.0 0.0 9.0" Properties=species:S:1:pos:R:3:momenta:R:3:forces:R:3 EPS_SCF=1e-06 energy=-1400.6862950044413 units=gap_units Integrated_spin_density=6.55109e-05 opt_dir=/home/tks32/dft_pbe/apr_8_opt_fragments_subset/singlepoint_1_CO2 time=115.0 free_energy=-1400.6862950044413 pbc="T T T"
C        0.04801870      -0.33614644       0.05534825       0.94001132      -2.08931439      -1.22562499      -1.77109249      -0.15188454      -0.16674915
O       -1.12578583      -0.35534311      -0.11800888      -2.17189690       3.04842559       0.88618876       1.41646577      -0.32536188       0.20459099
O        1.28008934      -0.26016252       0.05812063      -0.23056887      -0.84196220       0.15820490       0.67775710       0.14714731      -0.51566721
C        4.02894891       1.09385433       0.08501191       1.42604677       1.14575241      -0.27770236       0.01168422      -0.42264095       0.27283788
C        3.93295083      -0.14556724      -0.01449713      -0.15969562      -1.67285277       0.38973036       0.10300583       0.71668323       0.02307282
H        3.21683123       1.70523637      -0.32402539       0.27736724       0.42454392       0.16226895       0.06905161       0.37729361      -0.13360862
H        4.85155737       1.71298277       0.53328870       0.25639163       0.19109371      -0.12884122      -0.49541280      -0.75140402      -0.18802016
H        1.57134607       0.41115414       0.77195934      -0.14142543      -0.41968903      -0.32092064       0.10801712       0.72314906       0.57274678
H        3.29703166      -0.90953197      -0.42766107      -0.19623014       0.21400275       0.35669624      -0.11947638      -0.31298182      -0.06920335
9
Lattice="13.0 0.0 0.0 0.0 9.0 0.0 0.0 0.0 9.0" Properties=species:S:1:pos:R:3:momenta:R:3:forces:R:3 EPS_SCF=1e-06 energy=-1400.7617257798931 units=gap_units Integrated_spin_density=6.55109e-05 opt_dir=/home/tks32/dft_pbe/apr_8_opt_fragments_subset/singlepoint_1_CO2 time=115.0 free_energy=-1400.7617257798931 pbc="T T T"
C        0.05921211      -0.33899913       0.05313355       0.94001132      -2.08931439      -1.22562499      -0.72409143      -0.07751196      -0.07812063
O       -1.10729939      -0.37375064      -0.11435720      -2.17189690       3.04842559       0.88618876       0.73462883      -0.33086095       0.10560289
O        1.29424900      -0.24045875       0.05154907      -0.23056887      -0.84196220       0.15820490       0.32739750       0.37871449      -0.25628588
C        4.00664355       1.08327300       0.09006673       1.42604677       1.14575241      -0.27770236      -0.11921750       1.58486900       0.21521542
C        3.91263248      -0.13463670      -0.00757056      -0.15969562      -1.67285277       0.38973036      -0.17760847      -1.53041881      -0.40181121
H        3.21815866       1.73532278      -0.33069862       0.27736724       0.42454392       0.16226895       0.28193441       0.12140374      -0.02059407
H        4.84610472       1.67650301       0.52939070       0.25639163       0.19109371      -0.12884122      -0.36547690      -0.56193890      -0.06828063
H        1.56990688       0.43324163       0.78096732      -0.14142543      -0.41968903      -0.32092064      -0.09782596       0.44025003       0.37168112
H        3.30138027      -0.92401889      -0.43294466      -0.19623014       0.21400275       0.35669624       0.14025952      -0.02450664       0.13259300
9
Lattice="13.0 0.0 0.0 0.0 9.0 0.0 0.0 0.0 9.0" Properties=species:S:1:pos:R:3:momenta:R:3:forces:R:3 EPS_SCF=1e-06 energy=-1400.8178567758257 units=gap_units Integrated_spin_density=6.55109e-05 opt_dir=/home/tks32/dft_pbe/apr_8_opt_fragments_subset/singlepoint_1_CO2 time=115.0 free_energy=-1400.8178567758257 pbc="T T T"
C        0.06256680      -0.34267225       0.05008893       0.94001132      -2.08931439      -1.22562499       2.59402566       0.19291505       0.19408655
O       -1.08099770      -0.39563153      -0.10958665      -2.17189690       3.04842559       0.88618876      -1.43507869      -0.42967882      -0.18696859
O        1.31186435      -0.21677296       0.04225161      -0.23056887      -0.84196220       0.15820490      -0.81344308       0.64736943       0.20758898
C        3.98315889       1.08978468       0.09741275       1.42604677       1.14575241      -0.27770236      -0.58427304      -0.02192898      -0.20017811
C        3.89049770      -0.14021519      -0.00499712      -0.15969562      -1.67285277       0.38973036       0.17932189      -0.07412967      -0.26179485
H        3.22251200       1.76657614      -0.33756256       0.27736724       0.42454392       0.16226895       0.32607264       0.01742736       0.02477915
H        4.83674674       1.63414809       0.52477635       0.25639163       0.19109371      -0.12884122       0.05908348      -0.15340068       0.19088134
H        1.56742227       0.45996192       0.79393097      -0.14142543      -0.41968903      -0.32092064      -0.33843206      -0.01421244      -0.03630652
H        3.30721724      -0.93870258      -0.43677795      -0.19623014       0.21400275       0.35669624       0.01272320      -0.16436125       0.06791205
9
Lattice="13.0 0.0 0.0 0.0 9.0 0.0 0.0 0.0 9.0" Properties=species:S:1:pos:R:3:momenta:R:3:forces:R:3 EPS_SCF=1e-06 energy=-1400.8348133635188 units=gap_units Integrated_spin_density=6.55109e-05 opt_dir=/home/tks32/dft_pbe/apr_8_opt_fragments_subset/singlepoint_1_CO2 time=115.0 free_energy=-1400.8348133635188 pbc="T T T"
C        0.06765503      -0.34229384       0.05046964       0.94001132      -2.08931439      -1.22562499       1.39047795       0.11054972       0.08801663