9
Lattice="13.0 0.0 0.0 0.0 9.0 0.0 0.0 0.0 9.0" Properties=species:S:1:pos:R:3:momenta:R:3:forces:R:3 EPS_SCF=1e-06 energy=-1399.5882554863658 units=gap_units Integrated_spin_density=6.55109e-05 opt_dir=/home/tks32/dft_pbe/apr_8_opt_fragments_subset/singlepoint_1_CO2 time=90.0 free_energy=-1399.5882554863658 pbc="T T T"
C        0.10834813      -0.20008644       0.08003249      -2.38770956      -0.26549434       1.19730865      -1.35270251      -0.50118376      -0.20708426
O       -0.95972814      -0.68259717      -0.16749777      -2.45002284       2.27241839      -0.61128684       2.67395035       1.21493517       0.46790808
O        1.31430580       0.12231275       0.16687801       0.24673499      -3.87817655      -0.67722600      -1.80184745       0.59412028       0.45126016
C        3.70999425       0.94187889       0.17439546       1.55615106       2.22269925      -1.01865004       3.51373614      -1.26141572      -0.12616990
C        3.90891789      -0.26892818      -0.31327203       2.10090701      -0.58380351       1.55029841       0.05145099       1.14991374      -0.19088509
H        3.34378625       1.87385090      -0.21601980      -0.11633179       0.53232097      -0.12379123      -1.02674479      -0.21279906      -0.89401033
H        4.19820968       1.29483884       1.07154317       0.29661902       0.06994177      -0.17046381       0.43058094      -0.21934454       0.62069244
H        1.50832291       1.15742296       0.61909164       0.82068756      -0.31556975      -0.00324706      -1.65463446      -1.59330702      -0.67512716
H        4.57169407      -1.06776195      -0.76361128      -0.06703545      -0.05433623      -0.14294208      -0.83378920       0.82908091       0.55341607
9
Lattice="13.0 0.0 0.0 0.0 9.0 0.0 0.0 0.0 9.0" Properties=species:S:1:pos:R:3:momenta:R:3:forces:R:3 EPS_SCF=1e-06 energy=-1399.8706064616333 units=gap_units Integrated_spin_density=6.55109e-05 opt_dir=/home/tks32/dft_pbe/apr_8_opt_fragments_subset/singlepoint_1_CO2 time=90.0 free_energy=-1399.8706064616333 pbc="T T T"
C        0.09482110      -0.20509828       0.07796165      -2.38770956      -0.26549434       1.19730865       1.82949323       0.97506473       0.54289940
O       -0.93298864      -0.67044782      -0.16281869      -2.45002284       2.27241839      -0.61128684      -1.16743956      -0.46511477      -0.36518748
O        1.29628733       0.12825395       0.17139061       0.24673499      -3.87817655      -0.67722600      -1.02442637       0.42673241       0.32417500
C        3.74513161       0.92926473       0.17313376       1.55615106       2.22269925      -1.01865004       2.60901370      -0.95008421      -0.89828301
C        3.90943240      -0.25742904      -0.31518088       2.10090701      -0.58380351       1.55029841       0.03517698       1.66192367       0.11770575
H        3.33351880       1.87172291      -0.22495990      -0.11633179       0.53232097      -0.12379123      -0.61007192      -0.94649819      -0.46705737
H        4.20251549       1.29264539       1.07775009       0.29661902       0.06994177      -0.17046381       0.62559547      -0.13946268       0.78942178
H        1.49177657       1.14148989       0.61234037       0.82068756      -0.31556975      -0.00324706      -1.53287369      -1.20759770      -0.51458172
H        4.56335618      -1.05947114      -0.75807712      -0.06703545      -0.05433623      -0.14294208      -0.76446784       0.64503674       0.47090764
9
Lattice="13.0 0.0 0.0 0.0 9.0 0.0 0.0 0.0 9.0" Properties=species:S:1:pos:R:3:momenta:R:3:forces:R:3 EPS_SCF=1e-06 energy=-1400.138495861191 units=gap_units Integrated_spin_density=6.55109e-05 opt_dir=/home/tks32/dft_pbe/apr_8_opt_fragments_subset/singlepoint_1_CO2 time=90.0 free_energy=-1400.138495861191 pbc="T T T"
C        0.10317957      -0.19866557       0.08219096      -2.38770956      -0.26549434       1.19730865      -0.76443534       0.15834738       0.32119335
O       -0.92202551      -0.66473348      -0.16270609      -2.45002284       2.27241839      -0.61128684      -1.64743700      -0.59099683      -0.40507693
O        1.26857334       0.13839034       0.17909024       0.24673499      -3.87817655      -0.67722600       2.23539675       0.30943611       0.05425240
C        3.80603675       0.90724899       0.16191661       1.55615106       2.22269925      -1.01865004       0.90665830       1.85354252      -0.35064809
C        3.91029026      -0.22842770      -0.31557781       2.10090701      -0.58380351       1.55029841       0.45284488      -0.29290775      -0.60662581
H        3.31743113       1.85918497      -0.23824788      -0.11633179       0.53232097      -0.12379123      -0.00703881      -1.63286746      -0.02523112
H        4.21341191       1.28910607       1.09219617       0.29661902       0.06994177      -0.17046381       0.66597452      -0.18352957       0.65414423
H        1.45968109       1.11359700       0.60048896       0.82068756      -0.31556975      -0.00324706      -1.04338800      -0.12893263      -0.07777862
H        4.54727229      -1.04477003      -0.74781128      -0.06703545      -0.05433623      -0.14294208      -0.79857531       0.50790823       0.43577060
9
Lattice="13.0 0.0 0.0 0.0 9.0 0.0 0.0 0.0 9.0" Properties=species:S:1:pos:R:3:momenta:R:3:forces:R:3 EPS_SCF=1e-06 energy=-1400.2641678333473 units=gap_units Integrated_spin_density=6.55109e-05 opt_dir=/home/tks32/dft_pbe/apr_8_opt_fragments_subset/singlepoint_1_CO2 time=90.0 free_energy=-1400.2641678333473 pbc="T T T"
C        0.10135600      -0.19094014       0.08992435      -2.38770956      -0.26549434       1.19730865      -2.14116143      -0.59841074      -0.03681043
O       -0.93230070      -0.66681627      -0.16755734      -2.45002284       2.27241839      -0.61128684      -0.49687119       0.02019169      -0.08619968
O        1.27096133       0.15129635       0.18668321       0.24673499      -3.87817655      -0.67722600       2.42873267      -0.92116095      -0.50471126
C        3.87193643       0.91009675       0.14753406       1.55615106       2.22269925      -1.01865004      -0.40376546       4.30453040       0.99098303
C        3.91659893      -0.20590765      -0.32335182       2.10090701      -0.58380351       1.55029841       0.44690779      -2.22733316      -1.35418086
H        3.30286617       1.82793694      -0.25051554      -0.11633179       0.53232097      -0.12379123       0.38187020      -1.48471507       0.11580859
H        4.23136107       1.28367680       1.11319539       0.29661902       0.06994177      -0.17046381       0.61011858      -0.20786765       0.26796157
H        1.41803841       1.08691704       0.58887176       0.82068756      -0.31556975      -0.00324706      -0.37394471       1.21242618       0.44961544
H        4.52303319      -1.02532920      -0.73324417      -0.06703545      -0.05433623      -0.14294208      -0.45188645      -0.09766071       0.15753360
9
Lattice="13.0 0.0 0.0 0.0 9.0 0.0 0.0 0.0 9.0" Properties=species:S:1:pos:R:3:momenta:R:3:forces:R:3 EPS_SCF=1e-06 energy=-1400.3462689985445 units=gap_units Integrated_spin_density=6.55109e-05 opt_dir=/home/tks32/dft_pbe/apr_8_opt_fragments_subset/singlepoint_1_CO2 time=90.0 free_energy=-1400.3462689985445 pbc="T T T"
C        0.09600310      -0.19243617       0.08983232      -2.38770956      -0.26549434       1.19730865      -0.97641663      -0.19781438       0.11301401
O       -0.93354288      -0.66676579      -0.16777284      -2.45002284       2.27241839      -0.61128684      -0.80951238      -0.12620383      -0.16810688
O        1.27703316       0.14899344       0.18542143       0.24673499      -3.87817655      -0.67722600       1.59427960      -0.92222601      -0.45217174
C        3.87092702       0.92085807       0.15001151       1.55615106       2.22269925      -1.01865004      -0.18196632       2.18092902       0.16614923
C        3.91771620      -0.21147599      -0.32673727       2.10090701      -0.58380351       1.55029841       0.19427459      -0.18991970      -0.47541925
H        3.30382085       1.82422515      -0.25022602      -0.11633179       0.53232097      -0.12379123       0.28261455      -1.27599884       0.06364010
H        4.23288637       1.28315713       1.11386530       0.29661902       0.06994177      -0.17046381       0.62685527      -0.14441024       0.34884302
H        1.41710355       1.08994810       0.58999580       0.82068756      -0.31556975      -0.00324706      -0.44192914       0.95214721       0.33941263
H        4.52190348      -1.02557335      -0.73285034      -0.06703545      -0.05433623      -0.14294208      -0.28819955      -0.27650324       0.06463889
9
Lattice="13.0 0.0 0.0 0.0 9.0 0.0 0.0 0.0 9.0" Properties=species:S:1:pos:R:3:momenta:R:3:forces:R:3 EPS_SCF=1e-06 energy=-1400.3950763169391 units=gap_units Integrated_spin_density=6.55109e-05 opt_dir=/home/tks32/dft_pbe/apr_8_opt_fragments_subset/singlepoint_1_CO2 time=90.0 free_energy=-1400.3950763169391 pbc="T T T"
C        0.08831354      -0.19436442       0.09008191      -2.38770956      -0.26549434       1.19730865       0.51994411       0.28247500       0.27933044
O       -0.93704187      -0.66709156      -0.16846124      -2.45002284       2.27241839      -0.61128684      -1.08678894      -0.25931658      -0.24503394
O        1.28718708       0.14420828       0.18295585       0.24673499      -3.87817655      -0.67722600       0.39388093      -0.82398727      -0.33137483
C        3.86948332       0.93695805       0.15272992       1.55615106       2.22269925      -1.01865004       0.17459616      -0.00867874      -0.52609214
C        3.91929317      -0.21704610      -0.33118253       2.10090701      -0.58380351       1.55029841      -0.08185398       1.73858774       0.34891732
H        3.30551131       1.81713143      -0.24977827      -0.11633179       0.53232097      -0.12379123       0.08504932      -0.88403569      -0.05175901
H        4.23610291       1.28226468       1.11549427       0.29661902       0.06994177      -0.17046381       0.62879209      -0.06402008       0.41712080
H        1.41496232       1.09547662       0.59200575       0.82068756      -0.31556975      -0.00324706      -0.53744384       0.49799762       0.14790759
H        4.52003905      -1.02660637      -0.73230576      -0.06703545      -0.05433623      -0.14294208      -0.09617584      -0.47902198      -0.03901624
9
Lattice="13.0 0.0 0.0 0.0 9.0 0.0 0.0 0.0 9.0" Properties=species:S:1:pos:R:3:momenta:R:3:forces:R:3 EPS_SCF=1e-06 energy=-1400.4087715097583 units=gap_units Integrated_spin_density=6.55109e-05 opt_dir=/home/tks32/dft_pbe/apr_8_opt_fragments_subset/singlepoint_1_CO2 time=90.0 free_energy=-1400.4087715097583 pbc="T T T"
C        0.08314964      -0.19514548       0.09125029      -2.38770956      -0.26549434       1.19730865       1.20380815       0.40530533       0.27402985
O       -0.94386281      -0.66826090      -0.16990868      -2.45002284       2.27241839      -0.61128684      -0.81200446      -0.13878050      -0.18218303
O        1.29765638       0.13711768       0.17961724       0.24673499      -3.87817655      -0.67722600      -0.57141267      -0.56202097      -0.15342663
C        3.86877390       0.95141871       0.15339902       1.55615106       2.22269925      -1.01865004       0.55510426      -1.15638256      -0.59153197
C        3.92043588      -0.21618515      -0.33400440       2.10090701      -0.58380351       1.55029841      -0.13898619       2.39157215       0.60681236
H        3.30732008       1.80776026      -0.24955016      -0.11633179       0.53232097      -0.12379123      -0.16229378      -0.41024930      -0.20933895
H        4.24112226       1.28124517       1.11836964       0.29661902       0.06994177      -0.17046381       0.58407476      -0.01748393       0.36873707
H        1.41121940       1.10213484       0.59431443       0.82068756      -0.31556975      -0.00324706      -0.60672187      -0.01101706      -0.06474422
H        4.51803612      -1.02915453      -0.73194747      -0.06703545      -0.05433623      -0.14294208      -0.05156821      -0.50094317      -0.04835448
9
Lattice="13.0 0.0 0.0 0.0 9.0 0.0 0.0 0.0 9.0" Properties=species:S:1:pos:R:3:momenta:R:3:forces:R:3 EPS_SCF=1e-06 energy=-1400.4162909381685 units=gap_units Integrated_spin_density=6.55109e-05 opt_dir=/home/tks32/dft_pbe/apr_8_opt_fragments_subset/singlepoint_1_CO2 time=90.0 free_energy=-1400.4162909381685 pbc="T T T"
C        0.08390202      -0.19489216       0.09142156      -2.38770956      -0.26549434       1.19730865       1.02509159       0.33138586       0.23920854
O       -0.94437032      -0.66834763      -0.17002255      -2.45002284       2.27241839      -0.61128684      -0.70247011      -0.08752724      -0.15334272
O        1.29729925       0.13676642       0.17952135       0.24673499      -3.87817655      -0.67722600      -0.50514744      -0.53981891      -0.14862681
C        3.86912084       0.95069597       0.15302931       1.55615106       2.22269925      -1.01865004       0.54131624      -1.04990514      -0.53612253
C        3.92034901      -0.21469042      -0.33362515       2.10090701      -0.58380351       1.55029841      -0.09484358       2.25675453       0.54645980
H        3.30721865       1.80750385      -0.24968100      -0.11633179       0.53232097      -0.12379123      -0.15483437      -0.41848855      -0.20570240
H        4.24148730       1.28123424       1.11860010       0.29661902       0.06994177      -0.17046381       0.57749697      -0.02455090       0.34869349
H        1.41084019       1.10212795       0.59427397       0.82068756      -0.31556975      -0.00324706      -0.60096617      -0.00936648      -0.06364303
H        4.51800389      -1.02946762      -0.73197769      -0.06703545      -0.05433623      -0.14294208      -0.08564314      -0.45848318      -0.02692435
9
Lattice="13.0 0.0 0.0 0.0 9.0 0.0 0.0 0.0 9.0" Properties=species:S:1:pos:R:3:momenta:R:3:forces:R:3 EPS_SCF=1e-06 energy=-1400.4290454916556 units=gap_units Integrated_spin_density=6.55109e-05 opt_dir=/home/tks32/dft_pbe/apr_8_opt_fragments_subset/singlepoint_1_CO2 time=90.0 free_energy=-1400.4290454916556 pbc="T T T"
C        0.08528921      -0.19443464       0.09174139      -2.38770956      -0.26549434       1.19730865       0.69433517       0.19497227       0.17511879
O       -0.94531365      -0.66848633      -0.17023124      -2.45002284       2.27241839      -0.61128684      -0.50279465       0.00583394      -0.10067177
O        1.29662793       0.13607637       0.17933209       0.24673499      -3.87817655      -0.67722600      -0.37956932      -0.49711027      -0.13927094
C        3.86980804       0.94931827       0.15232522       1.55615106       2.22269925      -1.01865004       0.51351966      -0.82054033      -0.41918671
C        3.92020514      -0.21178198      -0.33290530       2.10090701      -0.58380351       1.55029841      -0.00979067       1.97268940       0.42026234
H        3.30702011       1.80698321      -0.24994124      -0.11633179       0.53232097      -0.12379123      -0.14073250      -0.43369511      -0.19884839
H        4.24221586       1.28120740       1.11904904       0.29661902       0.06994177      -0.17046381       0.56498848      -0.03787491       0.31058873
H        1.41008264       1.10211527       0.59419346       0.82068756      -0.31556975      -0.00324706      -0.58956651      -0.00679770      -0.06178922
H        4.51791556      -1.03006697      -0.73202354      -0.06703545      -0.05433623      -0.14294208      -0.15038966      -0.37747729       0.01379718
9
Lattice="13.0 0.0 0.0 0.0 9.0 0.0 0.0 0.0 9.0" Properties=species:S:1:pos:R:3:momenta:R:3:forces:R:3 EPS_SCF=1e-06 energy=-1400.4431214845415 units=gap_units Integrated_spin_density=6.55109e-05 opt_dir=/home/tks32/dft_pbe/apr_8_opt_fragments_subset/singlepoint_1_CO2 time=90.0 free_energy=-1400.4431214845415 pbc="T T T"
C        0.08707882      -0.19387091       0.09216572      -2.38770956      -0.26549434       1.19730865       0.26436644       0.01829655       0.09241948
O       -0.94655450      -0.66860660      -0.17049752      -2.45002284       2.27241839      -0.61128684      -0.24994530       0.12394520      -0.03368245
O        1.29572792       0.13506789       0.17905323       0.24673499      -3.87817655      -0.67722600      -0.20984989      -0.43741135      -0.12583870
C        3.87082673       0.94743885       0.15136484       1.55615106       2.22269925      -1.01865004       0.47187633      -0.44655244      -0.23303906
C        3.92006802      -0.20762695      -0.33192990       2.10090701      -0.58380351       1.55029841       0.10914019       1.52140863       0.22173596
H        3.30673174       1.80617664      -0.25033042      -0.11633179       0.53232097      -0.12379123      -0.12168184      -0.45312332      -0.18960522
H        4.24331188       1.28115372       1.11969515       0.29661902       0.06994177      -0.17046381       0.54786283      -0.05572821       0.25844709
H        1.40894137       1.10209855       0.59407286       0.82068756      -0.31556975      -0.00324706      -0.57279681      -0.00496404      -0.05995150
H        4.51771886      -1.03090058      -0.73205405      -0.06703545      -0.05433623      -0.14294208      -0.23897194      -0.26587102       0.06951439
9
Lattice="13.0 0.0 0.0 0.0 9.0 0.0 0.0 0.0 9.0" Properties=species:S:1:pos:R:3:momenta:R:3:forces:R:3 EPS_SCF=1e-06 energy=-1400.4543536981766 units=gap_units Integrated_spin_density=6.55109e-05 opt_dir=/home/tks32/dft_pbe/apr_8_opt_fragments_subset/singlepoint_1_CO2 time=90.0 free_energy=-1400.4543536981766 pbc="T T T"
C        0.08893021      -0.19334690       0.09263178      -2.38770956      -0.26549434       1.19730865      -0.18723948      -0.16683915       0.00604539
O       -0.94789889      -0.66860197      -0.17076785      -2.45002284       2.27241839      -0.61128684       0.00483792       0.24290705       0.03451726
O        1.29472681       0.13376192       0.17868765       0.24673499      -3.87817655      -0.67722600      -0.02115945      -0.36618450      -0.10900305
C        3.87217329       0.94534070       0.15028827       1.55615106       2.22269925      -1.01865004       0.41817010       0.07464618       0.02139905
C        3.92004401      -0.20250191      -0.33085012       2.10090701      -0.58380351       1.55029841       0.24965419       0.90564131      -0.04649841
H        3.30636140       1.80503806      -0.25085336      -0.11633179       0.53232097      -0.12379123      -0.10042037      -0.47205099      -0.17921649
H        4.24479724       1.28105467       1.12051201       0.29661902       0.06994177      -0.17046381       0.52812643      -0.07519698       0.19861076
H        1.40739258       1.10207899       0.59390971       0.82068756      -0.31556975      -0.00324706      -0.55118021      -0.00672954      -0.05942510
H        4.51732419      -1.03189296      -0.73201820      -0.06703545      -0.05433623      -0.14294208      -0.34078913      -0.13619338       0.13357059
9
Lattice="13.0 0.0 0.0 0.0 9.0 0.0 0.0 0.0 9.0" Properties=species:S:1:pos:R:3:momenta:R:3:forces:R:3 EPS_SCF=1e-06 energy=-1400.4605598205692 units=gap_units Integrated_spin_density=6.55109e-05 opt_dir=/home/tks32/dft_pbe/apr_8_opt_fragments_subset/singlepoint_1_CO2 time=90.0 free_energy=-1400.4605598205692 pbc="T T T"
C        0.09039234      -0.19305718       0.09305783      -2.38770956      -0.26549434       1.19730865      -0.55730934      -0.31937164      -0.06515528
O       -0.94910357      -0.66833298      -0.17097352      -2.45002284       2.27241839      -0.61128684       0.19815237       0.33339053       0.08777477
O        1.29380274       0.13218732       0.17823978       0.24673499      -3.87817655      -0.67722600       0.14851530      -0.29153988      -0.08976535
C        3.87384110       0.94353374       0.14934270       1.55615106       2.22269925      -1.01865004       0.35827551       0.67893474       0.31414174
C        3.92029458      -0.19690199      -0.32992900       2.10090701      -0.58380351       1.55029841       0.39036925       0.19652192      -0.35241161
H        3.30591861       1.80349869      -0.25151940      -0.11633179       0.53232097      -0.12379123      -0.08140863      -0.48219866      -0.16944741
H        4.24670985       1.28088353       1.12146372       0.29661902       0.06994177      -0.17046381       0.50889447      -0.09134649       0.14112411
H        1.40539774       1.10205404       0.59369809       0.82068756      -0.31556975      -0.00324706      -0.52582160      -0.01631231      -0.06208160
H        4.51659745      -1.03293458      -0.73184032      -0.06703545      -0.05433623      -0.14294208      -0.43966734      -0.00807821       0.19582062
9
Lattice="13.0 0.0 0.0 0.0 9.0 0.0 0.0 0.0 9.0" Properties=species:S:1:pos:R:3:momenta:R:3:forces:R:3 EPS_SCF=1e-06 energy=-1400.463670355179 units=gap_units Integrated_spin_density=6.55109e-05 opt_dir=/home/tks32/dft_pbe/apr_8_opt_fragments_subset/singlepoint_1_CO2 time=90.0 free_energy=-1400.463670355179 pbc="T T T"
C        0.09110014      -0.19314492       0.09337018      -2.38770956      -0.26549434       1.19730865      -0.76035785      -0.40604682      -0.10621383
O       -0.94997156      -0.66772711      -0.17106284      -2.45002284       2.27241839      -0.61128684       0.28339573       0.37398635       0.11402904
O        1.29313313       0.13045206       0.17773876       0.24673499      -3.87817655      -0.67722600       0.26196486      -0.22365002      -0.07008328
C        3.87573306       0.94264830       0.14883445       1.55615106       2.22269925      -1.01865004       0.30341021       1.20774765       0.57359849
C        3.92094605      -0.19164762      -0.32948453       2.10090701      -0.58380351       1.55029841       0.50212838      -0.43633899      -0.62241282
H        3.30543126       1.80158711      -0.25230372      -0.11633179       0.53232097      -0.12379123      -0.06973280      -0.47495233      -0.16222209
H        4.24898648       1.28062984       1.12247425       0.29661902       0.06994177      -0.17046381       0.49427600      -0.09840304       0.09838176
H        1.40302864       1.10201380       0.59343990       0.82068756      -0.31556975      -0.00324706      -0.49902141      -0.03617765      -0.06907899
H        4.51546365      -1.03388086      -0.73146655      -0.06703545      -0.05433623      -0.14294208      -0.51606312       0.09383486       0.24400172
9
Lattice="13.0 0.0 0.0 0.0 9.0 0.0 0.0 0.0 9.0" Properties=species:S:1:pos:R:3:momenta:R:3:forces:R:3 EPS_SCF=1e-06 energy=-1400.4682106312603 units=gap_units Integrated_spin_density=6.55109e-05 opt_dir=/home/tks32/dft_pbe/apr_8_opt_fragments_subset/singlepoint_1_CO2 time=90.0 free_energy=-1400.4682106312603 pbc="T T T"
C        0.09100326      -0.19361580       0.09354877      -2.38770956      -0.26549434       1.19730865      -0.78223077      -0.42199894      -0.11510174
O       -0.95047922      -0.66682084      -0.17103317      -2.45002284       2.27241839      -0.61128684       0.25850009       0.36392210       0.11244941
O        1.29278333       0.12867446       0.17722019       0.24673499      -3.87817655      -0.67722600       0.30766525      -0.16812196      -0.05161205
C        3.87772868       0.94301714       0.14893067       1.55615106       2.22269925      -1.01865004       0.26245881       1.51517443       0.73431337
C        3.92201703      -0.18733986      -0.32968527       2.10090701      -0.58380351       1.55029841       0.56660848      -0.83685302      -0.78977925
H        3.30492535       1.79940825      -0.25316619      -0.11633179       0.53232097      -0.12379123      -0.06743592      -0.44808411      -0.15836047
H        4.25151253       1.28030653       1.12347868       0.29661902       0.06994177      -0.17046381       0.48648272      -0.09387401       0.07671903
H        1.40041479       1.10194265       0.59314084       0.82068756      -0.31556975      -0.00324706      -0.47285931      -0.06513298      -0.07995284
H        4.51394511      -1.03464193      -0.73089465      -0.06703545      -0.05433623      -0.14294208      -0.55918935       0.15496850       0.27132454
9
Lattice="13.0 0.0 0.0 0.0 9.0 0.0 0.0 0.0 9.0" Properties=species:S:1:pos:R:3:momenta:R:3:forces:R:3 EPS_SCF=1e-06 energy=-1400.478616439448 units=gap_units Integrated_spin_density=6.55109e-05 opt_dir=/home/tks32/dft_pbe/apr_8_opt_fragments_subset/singlepoint_1_CO2 time=90.0 free_energy=-1400.478616439448 pbc="T T T"
C        0.09007778      -0.19452951       0.09360352      -2.38770956      -0.26549434       1.19730865      -0.62106925      -0.36797820      -0.09232416
O       -0.95070766      -0.66553770      -0.17088454      -2.45002284       2.27241839      -0.61128684       0.12251808       0.30313991       0.08303444
O        1.29276331       0.12673634       0.17665207       0.24673499      -3.87817655      -0.67722600       0.28499500      -0.12255502      -0.03361968
C        3.87998268       0.94498915       0.14980468       1.55615106       2.22269925      -1.01865004       0.23773970       1.50803009       0.75610554
C        3.92367819      -0.18396266      -0.33072157       2.10090701      -0.58380351       1.55029841       0.57548829      -0.91308377      -0.81398152
H        3.30435298       1.79677599      -0.25418798      -0.11633179       0.53232097      -0.12379123      -0.07585243      -0.39651977      -0.15800708
H        4.25452923       1.27988690       1.12455443       0.29661902       0.06994177      -0.17046381       0.48652195      -0.07496591       0.07909873
H        1.39732561       1.10180315       0.59275999       0.82068756      -0.31556975      -0.00324706      -0.44572481      -0.10497557      -0.09529037
H        4.51184873      -1.03523105      -0.73004072      -0.06703545      -0.05433623      -0.14294208      -0.56461654       0.16890824       0.27498411
9
Lattice="13.0 0.0 0.0 0.0 9.0 0.0 0.0 0.0 9.0" Properties=species:S:1:pos:R:3:momenta:R:3:forces:R:3 EPS_SCF=1e-06 energy=-1400.4953152694968 units=gap_units Integrated_spin_density=6.55109e-05 opt_dir=/home/tks32/dft_pbe/apr_8_opt_fragments_subset/singlepoint_1_CO2 time=90.0 free_energy=-1400.4953152694968 pbc="T T T"
C        0.08837689      -0.19589939       0.09354128      -2.38770956      -0.26549434       1.19730865      -0.29067195      -0.25004322      -0.04061663
O       -0.95077948      -0.66388349      -0.17063246      -2.45002284       2.27241839      -0.61128684      -0.11303748       0.19710083       0.02844905
O        1.29310307       0.12466083       0.17604659       0.24673499      -3.87817655      -0.67722600       0.19686941      -0.08867883      -0.01727641
C        3.88251660       0.94884639       0.15162494       1.55615106       2.22269925      -1.01865004       0.23210071       1.11470425       0.60387264
C        3.92605071      -0.18176762      -0.33277570       2.10090701      -0.58380351       1.55029841       0.51674478      -0.58546893      -0.65886845
H        3.30368999       1.79366684      -0.25540004      -0.11633179       0.53232097      -0.12379123      -0.09606337      -0.31806145      -0.16133517
H        4.25813297       1.27937642       1.12572041       0.29661902       0.06994177      -0.17046381       0.49587007      -0.03945541       0.10995486
H        1.39370151       1.10153243       0.59226229       0.82068756      -0.31556975      -0.00324706      -0.41723124      -0.15371925      -0.11417068
H        4.50905859      -1.03560181      -0.72884743      -0.06703545      -0.05433623      -0.14294208      -0.52458093       0.12362202       0.24999079
9
Lattice="13.0 0.0 0.0 0.0 9.0 0.0 0.0 0.0 9.0" Properties=species:S:1:pos:R:3:momenta:R:3:forces:R:3 EPS_SCF=1e-06 energy=-1400.513054666137 units=gap_units Integrated_spin_density=6.55109e-05 opt_dir=/home/tks32/dft_pbe/apr_8_opt_fragments_subset/singlepoint_1_CO2 time=90.0 free_energy=-1400.513054666137 pbc="T T T"
C        0.08620852      -0.19767214       0.09341235      -2.38770956      -0.26549434       1.19730865       0.13307166      -0.09818518       0.02589377
O       -0.95103770      -0.66191619      -0.17033530      -2.45002284       2.27241839      -0.61128684      -0.39633947       0.06928377      -0.03849813
O        1.29376579       0.12245486       0.17541727       0.24673499      -3.87817655      -0.67722600       0.06773331      -0.06615499      -0.00437946
C        3.88541461       0.95451719       0.15442977       1.55615106       2.22269925      -1.01865004       0.23989411       0.40628485       0.30351532
C        3.92925937      -0.18055808      -0.33590354       2.10090701      -0.58380351       1.55029841       0.39234550       0.08146213      -0.34963227
H        3.30287330       1.79005591      -0.25686948      -0.11633179       0.53232097      -0.12379123      -0.12584241      -0.21573024      -0.16683560
H        4.26252871       1.27880467       1.12705915       0.29661902       0.06994177      -0.17046381       0.51368722       0.01189566       0.16753830
H        1.38941564       1.10100957       0.59157965       0.82068756      -0.31556975      -0.00324706      -0.38528615      -0.20531547      -0.13387262
H        4.50542260      -1.03576520      -0.72724997      -0.06703545      -0.05433623      -0.14294208      -0.43926377       0.01645945       0.19627071
9
Lattice="13.0 0.0 0.0 0.0 9.0 0.0 0.0 0.0 9.0" Properties=species:S:1:pos:R:3:momenta:R:3:forces:R:3 EPS_SCF=1e-06 energy=-1400.5262196730955 units=gap_units Integrated_spin_density=6.55109e-05 opt_dir=/home/tks32/dft_pbe/apr_8_opt_fragments_subset/singlepoint_1_CO2 time=90.0 free_energy=-1400.5262196730955 pbc="T T T"
C        0.08437407      -0.19966855       0.09334642      -2.38770956      -0.26549434       1.19730865       0.45449747       0.01162901       0.07024924
O       -0.95224521      -0.65979590      -0.17013252      -2.45002284       2.27241839      -0.61128684      -0.59260251      -0.02051479      -0.08401559