9
Lattice="13.0 0.0 0.0 0.0 9.0 0.0 0.0 0.0 9.0" Properties=species:S:1:pos:R:3:momenta:R:3:forces:R:3 EPS_SCF=1e-06 energy=-1396.629998813185 units=gap_units Integrated_spin_density=6.55109e-05 opt_dir=/home/tks32/dft_pbe/apr_8_opt_fragments_subset/singlepoint_1_CO2 time=30.0 free_energy=-1396.629998813185 pbc="T T T"
C        0.45332292       0.00584120       0.00410546      -2.03312722      -0.04197946       0.02194332      -3.55081974      -2.13059289      -0.65309959
O        0.52798451      -1.12433802      -0.32221111      -1.62150469      -0.48791666       0.32452459      -4.21780980      -2.15032280      -0.20284602
O        0.85295517       1.08938184       0.33095838       2.13271085      -1.03215456      -0.25382116      -0.94903068       3.19454186       1.20897389
C        3.46609358       0.38014926       0.26555222      -0.83114675       0.36644608       0.78994268       0.03906424       1.47016923       0.06878035
C        2.59330143      -0.41255234      -0.28179049       2.42725265      -0.06778359      -0.59601751       3.62259271      -0.24049619      -0.91448504
H        3.09105248       1.42031512       0.40379418       0.01159795      -0.22727049      -0.27573882       1.41545464      -1.20058696      -0.03222293
H        4.39295849      -0.08440030       0.49799954      -0.22301018       0.60666883       0.19787840       2.48326973       0.50715749       1.08888378
H        1.89555854       0.67248767       0.16183792       0.11705252       0.51433217      -0.17518715       1.51500140      -0.92339355      -1.21128218
H        2.42409210      -1.13707441      -1.05789788       0.02017485       0.36965768      -0.03352437      -0.35772250       1.47352382       0.64729775
9
Lattice="13.0 0.0 0.0 0.0 9.0 0.0 0.0 0.0 9.0" Properties=species:S:1:pos:R:3:momenta:R:3:forces:R:3 EPS_SCF=1e-06 energy=-1397.1957203480542 units=gap_units Integrated_spin_density=6.55109e-05 opt_dir=/home/tks32/dft_pbe/apr_8_opt_fragments_subset/singlepoint_1_CO2 time=30.0 free_energy=-1397.1957203480542 pbc="T T T"
C        0.41781472      -0.01546473      -0.00242554      -2.03312722      -0.04197946       0.02194332      -1.51056444       1.42113323       0.40581121
O        0.48580641      -1.14584125      -0.32423957      -1.62150469      -0.48791666       0.32452459      -3.19947285      -0.68474990       0.08118979
O        0.84346486       1.12132726       0.34304812       2.13271085      -1.03215456      -0.25382116      -0.63197516      -2.34781766      -0.56187337
C        3.46648422       0.39485095       0.26624002      -0.83114675       0.36644608       0.78994268       1.05184880      -0.24435024      -0.06434629
C        2.62952736      -0.41495730      -0.29093534       2.42725265      -0.06778359      -0.59601751       2.49623997       1.03918234       0.14744607
H        3.10520703       1.40830925       0.40347195       0.01159795      -0.22727049      -0.27573882       1.14420944      -0.18203098       0.14721044
H        4.41779119      -0.07932873       0.50888838      -0.22301018       0.60666883       0.19787840       1.54473744       0.97753714       0.85304869
H        1.91070855       0.66325373       0.14972510       0.11705252       0.51433217      -0.17518715      -0.24244219      -0.88257275      -1.15982126
H        2.42051488      -1.12233917      -1.05142490       0.02017485       0.36965768      -0.03352437      -0.65258102       0.90366881       0.15133472
9
Lattice="13.0 0.0 0.0 0.0 9.0 0.0 0.0 0.0 9.0" Properties=species:S:1:pos:R:3:momenta:R:3:forces:R:3 EPS_SCF=1e-06 energy=-1397.668858913031 units=gap_units Integrated_spin_density=6.55109e-05 opt_dir=/home/tks32/dft_pbe/apr_8_opt_fragments_subset/singlepoint_1_CO2 time=30.0 free_energy=-1397.668858913031 pbc="T T T"
C        0.36848726      -0.01829835      -0.00363698      -2.03312722      -0.04197946       0.02194332      -0.12438054       0.30943695       0.15201164
O        0.41105516      -1.17306814      -0.32513158      -1.62150469      -0.48791666       0.32452459      -1.80412707       2.41787060       0.80140993
O        0.82765646       1.12308041       0.34746786       2.13271085      -1.03215456      -0.25382116      -0.06474310      -4.27513842      -1.23324216
C        3.47893108       0.40527267       0.26611912      -0.83114675       0.36644608       0.78994268       1.91256910      -1.54943194       0.01560984
C        2.69083513      -0.40517214      -0.29747021       2.42725265      -0.06778359      -0.59601751       0.80028268       1.36158108       0.49566730
H        3.13110346       1.39541078       0.40487473       0.01159795      -0.22727049      -0.27573882       0.84083309       0.86448863       0.37175113
H        4.45790366      -0.06352354       0.52849760      -0.22301018       0.60666883       0.19787840       0.51865362       1.29081869       0.56247843
H        1.92155571       0.64479443       0.12548669       0.11705252       0.51433217      -0.17518715      -1.23421607      -0.97676286      -1.15075981
H        2.40979130      -1.09868611      -1.04385901       0.02017485       0.36965768      -0.03352437      -0.84487171       0.55713727      -0.01492630
9
Lattice="13.0 0.0 0.0 0.0 9.0 0.0 0.0 0.0 9.0" Properties=species:S:1:pos:R:3:momenta:R:3:forces:R:3 EPS_SCF=1e-06 energy=-1398.2579743963395 units=gap_units Integrated_spin_density=6.55109e-05 opt_dir=/home/tks32/dft_pbe/apr_8_opt_fragments_subset/singlepoint_1_CO2 time=30.0 free_energy=-1398.2579743963395 pbc="T T T"
C        0.32260526      -0.01714854      -0.00290961      -2.03312722      -0.04197946       0.02194332       0.12526513      -0.99183263      -0.16186601
O        0.32220626      -1.16866076      -0.31635156      -1.62150469      -0.48791666       0.32452459      -1.49325782       1.92313814       0.59643244
O        0.81265473       1.07353847       0.33669919       2.13271085      -1.03215456      -0.25382116       0.47393161      -2.17807486      -0.60578593
C        3.51300272       0.39612496       0.26619697      -0.83114675       0.36644608       0.78994268       3.43433724       0.85846406       1.51185525
C        2.75558147      -0.38008444      -0.29742468       2.42725265      -0.06778359      -0.59601751      -2.28271882      -0.94268769      -1.34292669
H        3.16446448       1.39413924       0.41058242       0.01159795      -0.22727049      -0.27573882       0.87659335       0.71258444       0.43613840
H        4.50020666      -0.03386396       0.55287171      -0.22301018       0.60666883       0.19787840       0.33416093       1.07677773       0.44202158
H        1.91656006       0.61650145       0.08991197       0.11705252       0.51433217      -0.17518715      -1.06535229      -1.08358776      -1.17715943
H        2.39003756      -1.07073640      -1.03722820       0.02017485       0.36965768      -0.03352437      -0.40295934       0.62521857       0.30129039
9
Lattice="13.0 0.0 0.0 0.0 9.0 0.0 0.0 0.0 9.0" Properties=species:S:1:pos:R:3:momenta:R:3:forces:R:3 EPS_SCF=1e-06 energy=-1398.8116633467553 units=gap_units Integrated_spin_density=6.55109e-05 opt_dir=/home/tks32/dft_pbe/apr_8_opt_fragments_subset/singlepoint_1_CO2 time=30.0 free_energy=-1398.8116633467553 pbc="T T T"
C        0.28287745      -0.02851290      -0.00427851      -2.03312722      -0.04197946       0.02194332      -0.64603327      -0.62485799      -0.06906117
O        0.22357459      -1.14065240      -0.30099336      -1.62150469      -0.48791666       0.32452459      -2.20283931      -2.14604488      -0.55008547
O        0.80507794       1.00172196       0.31943428       2.13271085      -1.03215456      -0.25382116       1.22771723       1.94352040       0.73986349
C        3.58660087       0.39862393       0.28516718      -0.83114675       0.36644608       0.78994268       0.12622704       0.31480741      -0.08821099
C        2.78531624      -0.36929033      -0.31417202       2.42725265      -0.06778359      -0.59601751      -0.75558339       1.35492006       0.48976900
H        3.20544795       1.40190309       0.42117165       0.01159795      -0.22727049      -0.27573882       0.90194834       0.14467654       0.37939951
H        4.54245681       0.00629077       0.58033425      -0.22301018       0.60666883       0.19787840       1.43347367       0.40672658       0.66238577
H        1.89874569       0.57749152       0.04317869       0.11705252       0.51433217      -0.17518715      -0.04174693      -1.20068290      -1.20017352
H        2.36722168      -1.03776562      -1.02749394       0.02017485       0.36965768      -0.03352437      -0.04316337      -0.19306522      -0.36388662
9
Lattice="13.0 0.0 0.0 0.0 9.0 0.0 0.0 0.0 9.0" Properties=species:S:1:pos:R:3:momenta:R:3:forces:R:3 EPS_SCF=1e-06 energy=-1399.3111770465712 units=gap_units Integrated_spin_density=6.55109e-05 opt_dir=/home/tks32/dft_pbe/apr_8_opt_fragments_subset/singlepoint_1_CO2 time=30.0 free_energy=-1399.3111770465712 pbc="T T T"
C        0.23863230      -0.04717396      -0.00644165      -2.03312722      -0.04197946       0.02194332      -0.04932146       0.95371128       0.41817989
O        0.10555534      -1.14495635      -0.29480241      -1.62150469      -0.48791666       0.32452459      -2.52598825      -3.12347504      -0.82038004
O        0.81507279       0.96419344       0.31413236       2.13271085      -1.03215456      -0.25382116       0.30725066       1.83101527       0.76251683
C        3.65395965       0.40514806       0.30088161      -0.83114675       0.36644608       0.78994268      -0.73965970       0.80646099      -0.37881432
C        2.80152453      -0.34117626      -0.32242485       2.42725265      -0.06778359      -0.59601751      -0.70288013       1.14322829       0.40145986
H        3.25430484       1.41080114       0.43579219       0.01159795      -0.22727049      -0.27573882       0.94346698      -0.01604786       0.37516006
H        4.59969592       0.04765136       0.61386409      -0.22301018       0.60666883       0.19787840       1.84785175      -0.06607033       0.65379466
H        1.88228882       0.52631849      -0.01487523       0.11705252       0.51433217      -0.17518715       0.24576258      -0.86933210      -0.87776685
H        2.34628503      -1.01099591      -1.02377789       0.02017485       0.36965768      -0.03352437       0.67351758      -0.65949048      -0.53415009
9
Lattice="13.0 0.0 0.0 0.0 9.0 0.0 0.0 0.0 9.0" Properties=species:S:1:pos:R:3:momenta:R:3:forces:R:3 EPS_SCF=1e-06 energy=-1399.7783222477476 units=gap_units Integrated_spin_density=6.55109e-05 opt_dir=/home/tks32/dft_pbe/apr_8_opt_fragments_subset/singlepoint_1_CO2 time=30.0 free_energy=-1399.7783222477476 pbc="T T T"
C        0.20185314      -0.05082391      -0.00312015      -2.03312722      -0.04197946       0.02194332       0.05113175      -1.63436471      -0.20421346
O       -0.02169523      -1.18649601      -0.29972618      -1.62150469      -0.48791666       0.32452459      -1.00357021       1.82983258       0.51807403
O        0.82698546       0.95579472       0.31907875       2.13271085      -1.03215456      -0.25382116      -1.29666515      -0.04194472       0.20324786
C        3.70003473       0.42029938       0.30912002      -0.83114675       0.36644608       0.78994268       0.23944423       0.43338971       0.11365772
C        2.80622211      -0.30427178      -0.32428635       2.42725265      -0.06778359      -0.59601751      -1.25182444      -0.20387711      -0.58004055
H        3.30573891       1.41788165       0.45231387       0.01159795      -0.22727049      -0.27573882       0.73346227       0.41163988       0.40512747
H        4.66899263       0.08066724       0.64923937      -0.22301018       0.60666883       0.19787840       0.94320572      -0.02465749       0.18433158
H        1.87182374       0.47389294      -0.07302988       0.11705252       0.51433217      -0.17518715       0.07555358      -0.01390630      -0.30744955
H        2.33736371      -0.99713422      -1.02724123       0.02017485       0.36965768      -0.03352437       1.50926225      -0.75611182      -0.33273510
9
Lattice="13.0 0.0 0.0 0.0 9.0 0.0 0.0 0.0 9.0" Properties=species:S:1:pos:R:3:momenta:R:3:forces:R:3 EPS_SCF=1e-06 energy=-1399.963168296231 units=gap_units Integrated_spin_density=6.55109e-05 opt_dir=/home/tks32/dft_pbe/apr_8_opt_fragments_subset/singlepoint_1_CO2 time=30.0 free_energy=-1399.963168296231 pbc="T T T"
C        0.16927587      -0.07711755      -0.00298568      -2.03312722      -0.04197946       0.02194332       0.30311443      -0.29962357       0.21674587
O       -0.15101274      -1.19836344      -0.29689637      -1.62150469      -0.48791666       0.32452459       0.03593062       2.66075440       0.71639453
O        0.81953096       0.94760128       0.32641568       2.13271085      -1.03215456      -0.25382116      -2.87934751      -2.18081700      -0.50624451
C        3.74511499       0.44011216       0.31817707      -0.83114675       0.36644608       0.78994268       0.99547327      -0.61401771       0.13362280
C        2.79286645      -0.27372960      -0.33413056       2.42725265      -0.06778359      -0.59601751      -0.48393791      -0.61084856      -0.59845478
H        3.36261967       1.43008190       0.47296971       0.01159795      -0.22727049      -0.27573882       0.47774264       0.79436756       0.36615797
H        4.74499490       0.11020997       0.68385778      -0.22301018       0.60666883       0.19787840      -0.35803612       0.05467596      -0.43873266
H        1.86341236       0.42623601      -0.13000246       0.11705252       0.51433217      -0.17518715       0.09073178       1.01389909       0.28250912
H        2.35051675      -0.99522072      -1.03505694       0.02017485       0.36965768      -0.03352437       1.81832880      -0.81839016      -0.17199835
9
Lattice="13.0 0.0 0.0 0.0 9.0 0.0 0.0 0.0 9.0" Properties=species:S:1:pos:R:3:momenta:R:3:forces:R:3 EPS_SCF=1e-06 energy=-1400.0320243432948 units=gap_units Integrated_spin_density=6.55109e-05 opt_dir=/home/tks32/dft_pbe/apr_8_opt_fragments_subset/singlepoint_1_CO2 time=30.0 free_energy=-1400.0320243432948 pbc="T T T"
C        0.17003366      -0.07786661      -0.00244382      -2.03312722      -0.04197946       0.02194332       0.17818617      -0.15989531       0.24272518
O       -0.15092291      -1.19171155      -0.29510539      -1.62150469      -0.48791666       0.32452459      -0.14117678       2.04189274       0.54321436
O        0.81233259       0.94214924       0.32515007       2.13271085      -1.03215456      -0.25382116      -2.60983155      -1.69562041      -0.35080452
C        3.74760368       0.43857712       0.31851113      -0.83114675       0.36644608       0.78994268       0.72942099      -0.51746654       0.03507896
C        2.79165661      -0.27525672      -0.33562669       2.42725265      -0.06778359      -0.59601751      -0.39147096      -0.38443617      -0.42870175
H        3.36381402       1.43206782       0.47388510       0.01159795      -0.22727049      -0.27573882       0.52284984       0.65029504       0.34211656
H        4.74409980       0.11034666       0.68276094      -0.22301018       0.60666883       0.19787840      -0.22605772       0.00648644      -0.39193684
H        1.86363919       0.42877076      -0.12929619       0.11705252       0.51433217      -0.17518715       0.18913921       0.90565546       0.21497212
H        2.35506257      -0.99726670      -1.03548694       0.02017485       0.36965768      -0.03352437       1.74894081      -0.84691125      -0.20666406
9
Lattice="13.0 0.0 0.0 0.0 9.0 0.0 0.0 0.0 9.0" Properties=species:S:1:pos:R:3:momenta:R:3:forces:R:3 EPS_SCF=1e-06 energy=-1400.1290783683762 units=gap_units Integrated_spin_density=6.55109e-05 opt_dir=/home/tks32/dft_pbe/apr_8_opt_fragments_subset/singlepoint_1_CO2 time=30.0 free_energy=-1400.1290783683762 pbc="T T T"
C        0.17121376      -0.07898772      -0.00127764      -2.03312722      -0.04197946       0.02194332      -0.09836434       0.00415510       0.26158255
O       -0.15123671      -1.18001706      -0.29197503      -1.62150469      -0.48791666       0.32452459      -0.45059783       0.93871330       0.23289866
O        0.79855868       0.93250256       0.32303040       2.13271085      -1.03215456      -0.25382116      -2.07334189      -0.75295195      -0.05126391
C        3.75188247       0.43574908       0.31890984      -0.83114675       0.36644608       0.78994268       0.26725540      -0.35484460      -0.14113537
C        2.78947345      -0.27770576      -0.33817158       2.42725265      -0.06778359      -0.59601751      -0.23373702       0.02266243      -0.12597631
H        3.36635049       1.43567295       0.47566529       0.01159795      -0.22727049      -0.27573882       0.59941525       0.39982843       0.30050984
H        4.74266231       0.11048781       0.68067820      -0.22301018       0.60666883       0.19787840       0.00558761      -0.07944883      -0.31073654
H        1.86437205       0.43358365      -0.12805962       0.11705252       0.51433217      -0.17518715       0.36384753       0.70273827       0.08781138
H        2.36404271      -1.00147548      -1.03645163       0.02017485       0.36965768      -0.03352437       1.61993529      -0.88085216      -0.25369029
9
Lattice="13.0 0.0 0.0 0.0 9.0 0.0 0.0 0.0 9.0" Properties=species:S:1:pos:R:3:momenta:R:3:forces:R:3 EPS_SCF=1e-06 energy=-1400.2057559663351 units=gap_units Integrated_spin_density=6.55109e-05 opt_dir=/home/tks32/dft_pbe/apr_8_opt_fragments_subset/singlepoint_1_CO2 time=30.0 free_energy=-1400.2057559663351 pbc="T T T"
C        0.17195581      -0.07998321       0.00062301      -2.03312722      -0.04197946       0.02194332      -0.52716975       0.01789081       0.22586060
O       -0.15298520      -1.16643780      -0.28839994      -1.62150469      -0.48791666       0.32452459      -0.80586229      -0.36910263      -0.13922608
O        0.77941629       0.92137072       0.32095590       2.13271085      -1.03215456      -0.25382116      -1.31332967       0.52292523       0.34679737
C        3.75660294       0.43204932       0.31880947      -0.83114675       0.36644608       0.78994268      -0.21807057      -0.15273870      -0.32418492
C        2.78674812      -0.27983616      -0.34087187       2.42725265      -0.06778359      -0.59601751      -0.10239329       0.48953598       0.20661005
H        3.37058358       1.44021845       0.47824521       0.01159795      -0.22727049      -0.27573882       0.68554281       0.10798404       0.25173272
H        4.74138675       0.11035635       0.67779271      -0.22301018       0.60666883       0.19787840       0.26506708      -0.18020479      -0.22216944
H        1.86621544       0.44020170      -0.12666101       0.11705252       0.51433217      -0.17518715       0.56256309       0.43526166      -0.07992437
H        2.37739548      -1.00812935      -1.03814527       0.02017485       0.36965768      -0.03352437       1.45365259      -0.87155161      -0.26549594
9
Lattice="13.0 0.0 0.0 0.0 9.0 0.0 0.0 0.0 9.0" Properties=species:S:1:pos:R:3:momenta:R:3:forces:R:3 EPS_SCF=1e-06 energy=-1400.2537290633247 units=gap_units Integrated_spin_density=6.55109e-05 opt_dir=/home/tks32/dft_pbe/apr_8_opt_fragments_subset/singlepoint_1_CO2 time=30.0 free_energy=-1400.2537290633247 pbc="T T T"
C        0.17068689      -0.08081342       0.00316339      -2.03312722      -0.04197946       0.02194332      -0.96252195      -0.14316570       0.13800273
O       -0.15751948      -1.15557251      -0.28569386      -1.62150469      -0.48791666       0.32452459      -1.07119987      -1.43932253      -0.45092894
O        0.75736311       0.91327324       0.32036295       2.13271085      -1.03215456      -0.25382116      -0.53859600       1.68936920       0.69540401
C        3.76005019       0.42815839       0.31752813      -0.83114675       0.36644608       0.78994268      -0.46292984       0.08128654      -0.39017994
C        2.78391914      -0.27995502      -0.34254306       2.42725265      -0.06778359      -0.59601751      -0.14812001       0.81583762       0.39810391
H        3.37691197       1.44470613       0.48149197       0.01159795      -0.22727049      -0.27573882       0.75972919      -0.14284485       0.20809864
H        4.74121257       0.10957599       0.67437954      -0.22301018       0.60666883       0.19787840       0.44528420      -0.26108604      -0.16539242
H        1.86994129       0.44775704      -0.12569589       0.11705252       0.51433217      -0.17518715       0.69296956       0.15881492      -0.25101611
H        2.39475354      -1.01731982      -1.04064494       0.02017485       0.36965768      -0.03352437       1.28538472      -0.75888916      -0.18209188
9
Lattice="13.0 0.0 0.0 0.0 9.0 0.0 0.0 0.0 9.0" Properties=species:S:1:pos:R:3:momenta:R:3:forces:R:3 EPS_SCF=1e-06 energy=-1400.3117593714455 units=gap_units Integrated_spin_density=6.55109e-05 opt_dir=/home/tks32/dft_pbe/apr_8_opt_fragments_subset/singlepoint_1_CO2 time=30.0 free_energy=-1400.3117593714455 pbc="T T T"
C        0.16617849      -0.08206132       0.00593238      -2.03312722      -0.04197946       0.02194332      -1.16012827      -0.22677244       0.08238341
O       -0.16534682      -1.15082771      -0.28483550      -1.62150469      -0.48791666       0.32452459      -1.13781881      -1.92751918      -0.60271794
O        0.73563154       0.91189400       0.32226144       2.13271085      -1.03215456      -0.25382116      -0.07469119       2.14937220       0.80647300
C        3.76153364       0.42494084       0.31501028      -0.83114675       0.36644608       0.78994268      -0.35312969       0.30805778      -0.29413092
C        2.78085501      -0.27720864      -0.34265478       2.42725265      -0.06778359      -0.59601751      -0.39415989       0.89340283       0.37211000
H        3.38526464       1.44824544       0.48514187       0.01159795      -0.22727049      -0.27573882       0.81224734      -0.29438164       0.17874472
H        4.74261317       0.10796052       0.67072923      -0.22301018       0.60666883       0.19787840       0.48603442      -0.30049794      -0.16126417
H        1.87571818       0.45511230      -0.12570520       0.11705252       0.51433217      -0.17518715       0.68117134      -0.06134037      -0.38485609
H        2.41487136      -1.02824541      -1.04353151       0.02017485       0.36965768      -0.03352437       1.14047475      -0.54032122       0.00325800
9
Lattice="13.0 0.0 0.0 0.0 9.0 0.0 0.0 0.0 9.0" Properties=species:S:1:pos:R:3:momenta:R:3:forces:R:3 EPS_SCF=1e-06 energy=-1400.404255838993 units=gap_units Integrated_spin_density=6.55109e-05 opt_dir=/home/tks32/dft_pbe/apr_8_opt_fragments_subset/singlepoint_1_CO2 time=30.0 free_energy=-1400.404255838993 pbc="T T T"
C        0.15817609      -0.08395554       0.00870461      -2.03312722      -0.04197946       0.02194332      -1.05094500      -0.09986351       0.09979675
O       -0.17626039      -1.15311162      -0.28611242      -1.62150469      -0.48791666       0.32452459      -0.96891781      -1.71954761      -0.55698706
O        0.71581915       0.91796129       0.32671236       2.13271085      -1.03215456      -0.25382116      -0.06894928       1.67537038       0.61840785
C        3.76166799       0.42309256       0.31174407      -0.83114675       0.36644608       0.78994268       0.00585867       0.45280182      -0.10571074
C        2.77675702      -0.27169902      -0.34149003       2.42725265      -0.06778359      -0.59601751      -0.70230495       0.76503650       0.19454393
H        3.39554396       1.45042982       0.48903458       0.01159795      -0.22727049      -0.27573882       0.84235286      -0.32932866       0.16770465
H        4.74552640       0.10548481       0.66689561      -0.22301018       0.60666883       0.19787840       0.40425942      -0.30112454      -0.20269182
H        1.88323360       0.46152346      -0.12702222       0.11705252       0.51433217      -0.17518715       0.52909949      -0.19812204      -0.47465180
H        2.43685541      -1.03991573      -1.04611834       0.02017485       0.36965768      -0.03352437       1.00954659      -0.24522235       0.25958825
9
Lattice="13.0 0.0 0.0 0.0 9.0 0.0 0.0 0.0 9.0" Properties=species:S:1:pos:R:3:momenta:R:3:forces:R:3 EPS_SCF=1e-06 energy=-1400.5079260869322 units=gap_units Integrated_spin_density=6.55109e-05 opt_dir=/home/tks32/dft_pbe/apr_8_opt_fragments_subset/singlepoint_1_CO2 time=30.0 free_energy=-1400.5079260869322 pbc="T T T"
C        0.14716889      -0.08602190       0.01156093      -2.03312722      -0.04197946       0.02194332      -0.77567162       0.09046287       0.13940961
O       -0.18959066      -1.16139291      -0.28927826      -1.62150469      -0.48791666       0.32452459      -0.59041771      -0.89619260      -0.33025128
O        0.69773836       0.92948767       0.33295720       2.13271085      -1.03215456      -0.25382116      -0.43082657       0.53334325       0.23097699
C        3.76181011       0.42306851       0.30842175      -0.83114675       0.36644608       0.78994268       0.40770018       0.43991904       0.05837791
C        2.77052607      -0.26397048      -0.33973739       2.42725265      -0.06778359      -0.59601751      -0.87421072       0.53990164      -0.00683770
H        3.40784516       1.45120340       0.49314520       0.01159795      -0.22727049      -0.27573882       0.84065325      -0.25807893       0.17469638
H        4.74961196       0.10216642       0.66271148      -0.22301018       0.60666883       0.19787840       0.26279461      -0.27981393      -0.26665002
H        1.89191313       0.46657618      -0.12992606       0.11705252       0.51433217      -0.17518715       0.28722871      -0.24658004      -0.53458266
H        2.46029620      -1.05130686      -1.04750663       0.02017485       0.36965768      -0.03352437       0.87274986       0.07703870       0.53486078
9
Lattice="13.0 0.0 0.0 0.0 9.0 0.0 0.0 0.0 9.0" Properties=species:S:1:pos:R:3:momenta:R:3:forces:R:3 EPS_SCF=1e-06 energy=-1400.595740534551 units=gap_units Integrated_spin_density=6.55109e-05 opt_dir=/home/tks32/dft_pbe/apr_8_opt_fragments_subset/singlepoint_1_CO2 time=30.0 free_energy=-1400.595740534551 pbc="T T T"
C        0.13240741      -0.08761691       0.01508323      -2.03312722      -0.04197946       0.02194332      -0.52367771       0.08928367       0.11062516
O       -0.20572905      -1.17405617      -0.29405775      -1.62150469      -0.48791666       0.32452459      -0.05584302       0.36982652       0.03437449
O        0.67769202       0.94355588       0.34029029       2.13271085      -1.03215456      -0.25382116      -0.99953148      -0.80574159      -0.18628822
C        3.76398195       0.42523635       0.30542348      -0.83114675       0.36644608       0.78994268       0.63483077       0.18354526       0.07540046
C        2.76000216      -0.25362947      -0.33803634       2.42725265      -0.06778359      -0.59601751      -0.68212921       0.31844995      -0.09909015
H        3.42421144       1.45068352       0.49808504       0.01159795      -0.22727049      -0.27573882       0.79521394      -0.08137765       0.20152509
H        4.75496589       0.09748719       0.65724076      -0.22301018       0.60666883       0.19787840       0.13140628      -0.25714511      -0.32986307
H        1.90193682       0.47034992      -0.13546412       0.11705252       0.51433217      -0.17518715      -0.00641760      -0.19292690      -0.58585377
H        2.48785058      -1.06220028      -1.04621638       0.02017485       0.36965768      -0.03352437       0.70614803       0.37608584       0.77917001
9
Lattice="13.0 0.0 0.0 0.0 9.0 0.0 0.0 0.0 9.0" Properties=species:S:1:pos:R:3:momenta:R:3:forces:R:3 EPS_SCF=1e-06 energy=-1400.6700910984152 units=gap_units Integrated_spin_density=6.55109e-05 opt_dir=/home/tks32/dft_pbe/apr_8_opt_fragments_subset/singlepoint_1_CO2 time=30.0 free_energy=-1400.6700910984152 pbc="T T T"
C        0.11455215      -0.08864786       0.01925548      -2.03312722      -0.04197946       0.02194332      -0.43282486      -0.12511594      -0.00735813
O       -0.22206774      -1.18432909      -0.29858299      -1.62150469      -0.48791666       0.32452459       0.36366076       1.32504808       0.32368790
O        0.65166830       0.95253657       0.34641084       2.13271085      -1.03215456      -0.25382116      -1.44528075      -1.53522027      -0.36881052
C        3.77004418       0.42851530       0.30291627      -0.83114675       0.36644608       0.78994268       0.43049905      -0.29873502      -0.15487910
C        2.74537090      -0.24141926      -0.33696070       2.42725265      -0.06778359      -0.59601751       0.05098726       0.21673204       0.05109727
H        3.44532953       1.44966707       0.50422205       0.01159795      -0.22727049      -0.27573882       0.72385236       0.14592798       0.24243479
H        4.76108146       0.09126594       0.64978720      -0.22301018       0.60666883       0.19787840       0.10123660      -0.26177198      -0.36053242
H        1.91183178       0.47290191      -0.14456098       0.11705252       0.51433217      -0.17518715      -0.30821821      -0.01036229      -0.62677189
H        2.51950867      -1.07068056      -1.04013896       0.02017485       0.36965768      -0.03352437       0.51608779       0.54349740       0.90113210
9
Lattice="13.0 0.0 0.0 0.0 9.0 0.0 0.0 0.0 9.0" Properties=species:S:1:pos:R:3:momenta:R:3:forces:R:3 EPS_SCF=1e-06 energy=-1400.7754592452034 units=gap_units Integrated_spin_density=6.55109e-05 opt_dir=/home/tks32/dft_pbe/apr_8_opt_fragments_subset/singlepoint_1_CO2 time=30.0 free_energy=-1400.7754592452034 pbc="T T T"
C        0.09399365      -0.09049249       0.02334681      -2.03312722      -0.04197946       0.02194332      -0.41283126      -0.21599444      -0.11085552
O       -0.23589035      -1.18581915      -0.30094698      -1.62150469      -0.48791666       0.32452459       0.41488276       1.23788743       0.31596579