9
Lattice="13.0 0.0 0.0 0.0 9.0 0.0 0.0 0.0 9.0" Properties=species:S:1:pos:R:3:momenta:R:3:forces:R:3 EPS_SCF=1e-06 energy=-1397.8596395116404 units=gap_units Integrated_spin_density=6.55109e-05 opt_dir=/home/tks32/dft_pbe/apr_8_opt_fragments_subset/singlepoint_1_CO2 time=35.0 free_energy=-1397.8596395116404 pbc="T T T"
C        0.35391355      -0.01257206       0.00328120      -2.46152668      -0.57666801       0.26503282       1.31416553       0.96802744       0.09793883
O        0.45078437      -1.14184570      -0.30799244      -3.21953655      -0.59652482       0.57322067      -2.38215373      -0.34746364       0.14368008
O        0.91739384       1.06840360       0.32753141       2.02175006      -0.63704048      -0.12486502      -0.97213537      -1.13804757      -0.35682317
C        3.43902231       0.39341360       0.29249168       0.14812212       0.08261467       0.63770855       5.29378518       0.60203951       1.71710796
C        2.71836742      -0.41026295      -0.30725587       3.63768155       0.01655986      -0.60389461       1.42453771      -0.95749585      -0.30539637
H        3.18046972       1.40928646       0.30327341       0.21258278       0.50586996      -0.09648188       0.21831644       1.62581015       0.45608378
H        4.53134341       0.22126459       0.69863887       0.27264163       0.67115135       0.41099176      -1.84665116      -0.12870597      -0.53243045
H        1.97792859       0.80707650      -0.04499774      -0.15396494       0.06210187      -0.67904047      -2.25017641      -0.68204943      -0.76929845
H        2.33332695      -0.92137670      -1.13021003      -0.45774997       0.47193559      -0.38267182      -0.79968819       0.05788535      -0.45086220
9
Lattice="13.0 0.0 0.0 0.0 9.0 0.0 0.0 0.0 9.0" Properties=species:S:1:pos:R:3:momenta:R:3:forces:R:3 EPS_SCF=1e-06 energy=-1398.23860969661 units=gap_units Integrated_spin_density=6.55109e-05 opt_dir=/home/tks32/dft_pbe/apr_8_opt_fragments_subset/singlepoint_1_CO2 time=35.0 free_energy=-1398.23860969661 pbc="T T T"
C        0.36705521      -0.00289179       0.00426059      -2.46152668      -0.57666801       0.26503282       0.10155076      -1.44891325      -0.51735957
O        0.42696283      -1.14532034      -0.30655564      -3.21953655      -0.59652482       0.57322067      -1.94086204       0.62008827       0.37779811
O        0.90767249       1.05702312       0.32396318       2.02175006      -0.63704048      -0.12486502       0.02639917       0.32708244       0.16507068
C        3.49196016       0.39943400       0.30966276       0.14812212       0.08261467       0.63770855       1.09883772       0.32988357      -0.13196526
C        2.73261280      -0.41983791      -0.31030983       3.63768155       0.01655986      -0.60389461       2.31048510       0.64948221       0.96570053
H        3.18265288       1.42554456       0.30783425       0.21258278       0.50586996      -0.09648188       0.44002757       0.53399488       0.41294399
H        4.51287690       0.21997753       0.69331457       0.27264163       0.67115135       0.41099176      -0.03978372      -0.34947257       0.06826899
H        1.95542683       0.80025601      -0.05269072      -0.15396494       0.06210187      -0.67904047      -1.35804142      -0.81162411      -0.88310770
H        2.32533007      -0.92079785      -1.13471865      -0.45774997       0.47193559      -0.38267182      -0.63861315       0.14947856      -0.45734977
9
Lattice="13.0 0.0 0.0 0.0 9.0 0.0 0.0 0.0 9.0" Properties=species:S:1:pos:R:3:momenta:R:3:forces:R:3 EPS_SCF=1e-06 energy=-1398.38907580268 units=gap_units Integrated_spin_density=6.55109e-05 opt_dir=/home/tks32/dft_pbe/apr_8_opt_fragments_subset/singlepoint_1_CO2 time=35.0 free_energy=-1398.38907580268 pbc="T T T"
C        0.38007441      -0.01118273      -0.00092925      -2.46152668      -0.57666801       0.26503282      -0.96156766      -0.90012808      -0.23923453
O        0.38274717      -1.14117069      -0.30082901      -3.21953655      -0.59652482       0.57322067      -1.60765359      -0.52073133       0.02205744
O        0.89923307       1.05061905       0.32268890       2.02175006      -0.63704048      -0.12486502       0.58527598       0.74148804       0.36019430
C        3.55249924       0.40872358       0.32356810       0.14812212       0.08261467       0.63770855      -2.65857492       1.82606979      -1.29941220
C        2.77254749      -0.42083361      -0.30172577       3.63768155       0.01655986      -0.60389461       1.14087514       0.27713333       0.18985313
H        3.18978152       1.44644336       0.31678496       0.21258278       0.50586996      -0.09648188       0.70240517      -0.57176502       0.40429375
H        4.49579017       0.21471807       0.68932384       0.27264163       0.67115135       0.41099176       2.79597359      -0.72853735       1.09498754
H        1.91923844       0.78459304      -0.06997780      -0.15396494       0.06210187      -0.67904047      -0.12270967      -0.77167474      -0.89440524
H        2.31063866      -0.91852273      -1.14414347      -0.45774997       0.47193559      -0.38267182       0.12597596       0.64814535       0.36166582
9
Lattice="13.0 0.0 0.0 0.0 9.0 0.0 0.0 0.0 9.0" Properties=species:S:1:pos:R:3:momenta:R:3:forces:R:3 EPS_SCF=1e-06 energy=-1398.459601112554 units=gap_units Integrated_spin_density=6.55109e-05 opt_dir=/home/tks32/dft_pbe/apr_8_opt_fragments_subset/singlepoint_1_CO2 time=35.0 free_energy=-1398.459601112554 pbc="T T T"
C        0.37767049      -0.01343305      -0.00152733      -2.46152668      -0.57666801       0.26503282      -0.76752352      -0.48001730      -0.11769624
O        0.37872804      -1.14247252      -0.30077386      -3.21953655      -0.59652482       0.57322067      -1.56201846      -0.53501920       0.01700414
O        0.90069626       1.05247277       0.32358938       2.02175006      -0.63704048      -0.12486502       0.46503120       0.33777043       0.21197682
C        3.54585280       0.41328875       0.32031957       0.14812212       0.08261467       0.63770855      -1.86892824       1.33651139      -1.05872202
C        2.77539968      -0.42014078      -0.30125114       3.63768155       0.01655986      -0.60389461       1.12324361       0.31703122       0.19098224
H        3.19153753       1.44501394       0.31779569       0.21258278       0.50586996      -0.09648188       0.58578505      -0.29739105       0.39825457
H        4.50278010       0.21289673       0.69206131       0.27264163       0.67115135       0.41099176       2.14111188      -0.57517514       0.85274552
H        1.91893166       0.78266385      -0.07221381      -0.15396494       0.06210187      -0.67904047      -0.23853327      -0.72374875      -0.85066144
H        2.31095360      -0.91690236      -1.14323931      -0.45774997       0.47193559      -0.38267182       0.12183175       0.62003840       0.35611642
9
Lattice="13.0 0.0 0.0 0.0 9.0 0.0 0.0 0.0 9.0" Properties=species:S:1:pos:R:3:momenta:R:3:forces:R:3 EPS_SCF=1e-06 energy=-1398.5462205053498 units=gap_units Integrated_spin_density=6.55109e-05 opt_dir=/home/tks32/dft_pbe/apr_8_opt_fragments_subset/singlepoint_1_CO2 time=35.0 free_energy=-1398.5462205053498 pbc="T T T"
C        0.37334540      -0.01681020      -0.00239708      -2.46152668      -0.57666801       0.26503282      -0.46742063       0.08492667       0.04724791
O        0.37071174      -1.14515092      -0.30067635      -3.21953655      -0.59652482       0.57322067      -1.48527828      -0.48204901       0.02815064
O        0.90332278       1.05509238       0.32499680       2.02175006      -0.63704048      -0.12486502       0.27644968      -0.27063167      -0.01335871
C        3.53460759       0.42116139       0.31441424       0.14812212       0.08261467       0.63770855      -0.51297302       0.54624242      -0.62379739
C        2.78113001      -0.41862438      -0.30028611       3.63768155       0.01655986      -0.60389461       1.02110391       0.31992164       0.13457487
H        3.19476767       1.44288994       0.31982694       0.21258278       0.50586996      -0.09648188       0.38258985       0.18862997       0.39290856
H        4.51510100       0.20963767       0.69692659       0.27264163       0.67115135       0.41099176       1.08326643      -0.31280839       0.46104086
H        1.91798379       0.77888931      -0.07662192      -0.15396494       0.06210187      -0.67904047      -0.41899754      -0.63935442      -0.77446109
H        2.31158016      -0.91369784      -1.14142264      -0.45774997       0.47193559      -0.38267182       0.12125962       0.56512278       0.34769435
9
Lattice="13.0 0.0 0.0 0.0 9.0 0.0 0.0 0.0 9.0" Properties=species:S:1:pos:R:3:momenta:R:3:forces:R:3 EPS_SCF=1e-06 energy=-1398.6004952417281 units=gap_units Integrated_spin_density=6.55109e-05 opt_dir=/home/tks32/dft_pbe/apr_8_opt_fragments_subset/singlepoint_1_CO2 time=35.0 free_energy=-1398.6004952417281 pbc="T T T"
C        0.36787887      -0.01956366      -0.00302075      -2.46152668      -0.57666801       0.26503282      -0.18948628       0.40339128       0.14578523
O        0.35849567      -1.14918470      -0.30049379      -3.21953655      -0.59652482       0.57322067      -1.40226424      -0.24790202       0.08529773
O        0.90661755       1.05653871       0.32621850       2.02175006      -0.63704048      -0.12486502       0.09208861      -0.79947224      -0.21059834
C        3.52275956       0.43008614       0.30699892       0.14812212       0.08261467       0.63770855       0.99405080      -0.19033240      -0.08723743
C        2.78972569      -0.41618234      -0.29896443       3.63768155       0.01655986      -0.60389461       0.76674986       0.19239175      -0.03896460
H        3.19896310       1.44161351       0.32297812       0.21258278       0.50586996      -0.09648188       0.15603118       0.72562985       0.39533910
H        4.52983751       0.20565119       0.70285782       0.27264163       0.67115135       0.41099176       0.02076713      -0.02566964       0.06458940
H        1.91571981       0.77333931      -0.08319707      -0.15396494       0.06210187      -0.67904047      -0.57242195      -0.53931130      -0.68539591
H        2.31255238      -0.90891082      -1.13861684      -0.45774997       0.47193559      -0.38267182       0.13448490       0.48127472       0.33118482
9
Lattice="13.0 0.0 0.0 0.0 9.0 0.0 0.0 0.0 9.0" Properties=species:S:1:pos:R:3:momenta:R:3:forces:R:3 EPS_SCF=1e-06 energy=-1398.6292381774285 units=gap_units Integrated_spin_density=6.55109e-05 opt_dir=/home/tks32/dft_pbe/apr_8_opt_fragments_subset/singlepoint_1_CO2 time=35.0 free_energy=-1398.6292381774285 pbc="T T T"
C        0.36225691      -0.02054712      -0.00304188      -2.46152668      -0.57666801       0.26503282      -0.04101069       0.27591833       0.12247478
O        0.34230551      -1.15373364      -0.30001344      -3.21953655      -0.59652482       0.57322067      -1.30627114       0.16000032       0.19258615
O        0.90992405       1.05487819       0.32653771       2.02175006      -0.63704048      -0.12486502      -0.02510069      -1.03147420      -0.29486531
C        3.51577952       0.43741319       0.30000190       0.14812212       0.08261467       0.63770855       2.15033107      -0.51890409       0.40650012
C        2.80030279      -0.41327166      -0.29791929       3.63768155       0.01655986      -0.60389461       0.41076069      -0.04051279      -0.27970775
H        3.20331712       1.44315335       0.32727900       0.21258278       0.50586996      -0.09648188      -0.00856281       1.06075996       0.40149278
H        4.54317732       0.20196824       0.70843525       0.27264163       0.67115135       0.41099176      -0.73539817       0.18194546      -0.22174857
H        1.91156127       0.76634604      -0.09165426      -0.15396494       0.06210187      -0.67904047      -0.60630519      -0.45138114      -0.60750787
H        2.31392568      -0.90281927      -1.13486450      -0.45774997       0.47193559      -0.38267182       0.16155693       0.36364814       0.28077567
9
Lattice="13.0 0.0 0.0 0.0 9.0 0.0 0.0 0.0 9.0" Properties=species:S:1:pos:R:3:momenta:R:3:forces:R:3 EPS_SCF=1e-06 energy=-1398.6709767021018 units=gap_units Integrated_spin_density=6.55109e-05 opt_dir=/home/tks32/dft_pbe/apr_8_opt_fragments_subset/singlepoint_1_CO2 time=35.0 free_energy=-1398.6709767021018 pbc="T T T"
C        0.35705516      -0.02047703      -0.00263691      -2.46152668      -0.57666801       0.26503282      -0.03417218      -0.09654210       0.03255309
O        0.32321219      -1.15727377      -0.29891441      -3.21953655      -0.59652482       0.57322067      -1.26169683       0.51175535       0.28372665
O        0.91281300       1.04981288       0.32580421       2.02175006      -0.63704048      -0.12486502      -0.05768837      -0.96455967      -0.26275218
C        3.51694168       0.44221115       0.29511184       0.14812212       0.08261467       0.63770855       2.66378580      -0.44740055       0.70687111
C        2.81124418      -0.41079229      -0.29794698       3.63768155       0.01655986      -0.60389461       0.13824210      -0.17977821      -0.41653358
H        3.20720609       1.44821143       0.33253972       0.21258278       0.50586996      -0.09648188      -0.07306008       1.06346967       0.39648090
H        4.55263728       0.19928347       0.71268726       0.27264163       0.67115135       0.41099176      -1.06268752       0.29064771      -0.35889266
H        1.90571963       0.75848947      -0.10136885      -0.15396494       0.06210187      -0.67904047      -0.50152178      -0.39189804      -0.55165437
H        2.31572094      -0.89607796      -1.13051539      -0.45774997       0.47193559      -0.38267182       0.18879886       0.21430583       0.17020103
9
Lattice="13.0 0.0 0.0 0.0 9.0 0.0 0.0 0.0 9.0" Properties=species:S:1:pos:R:3:momenta:R:3:forces:R:3 EPS_SCF=1e-06 energy=-1398.7461366252041 units=gap_units Integrated_spin_density=6.55109e-05 opt_dir=/home/tks32/dft_pbe/apr_8_opt_fragments_subset/singlepoint_1_CO2 time=35.0 free_energy=-1398.7461366252041 pbc="T T T"
C        0.35225894      -0.02073788      -0.00216321      -2.46152668      -0.57666801       0.26503282      -0.12380679      -0.42923871      -0.04581160
O        0.30179488      -1.15874282      -0.29697331      -3.21953655      -0.59652482       0.57322067      -1.28151922       0.61193256       0.30564054
O        0.91521950       1.04201774       0.32426246       2.02175006      -0.63704048      -0.12486502      -0.02184433      -0.69860147      -0.15184003
C        3.52692535       0.44502816       0.29308252       0.14812212       0.08261467       0.63770855       2.46752917      -0.18481205       0.71859953
C        2.82155527      -0.40916406      -0.29936948       3.63768155       0.01655986      -0.60389461       0.08737468      -0.05256489      -0.31961094
H        3.21046103       1.45633193       0.33860466       0.21258278       0.50586996      -0.09648188      -0.04448115       0.76353768       0.37038946
H        4.55758565       0.19784237       0.71530989       0.27264163       0.67115135       0.41099176      -1.00570683       0.30966291      -0.35965325
H        1.89877941       0.75010363      -0.11196293      -0.15396494       0.06210187      -0.67904047      -0.28377420      -0.36472701      -0.51562103
H        2.31797014      -0.88929173      -1.12603012      -0.45774997       0.47193559      -0.38267182       0.20622867       0.04481099      -0.00209269
9
Lattice="13.0 0.0 0.0 0.0 9.0 0.0 0.0 0.0 9.0" Properties=species:S:1:pos:R:3:momenta:R:3:forces:R:3 EPS_SCF=1e-06 energy=-1398.840917854179 units=gap_units Integrated_spin_density=6.55109e-05 opt_dir=/home/tks32/dft_pbe/apr_8_opt_fragments_subset/singlepoint_1_CO2 time=35.0 free_energy=-1398.840917854179 pbc="T T T"
C        0.34750786      -0.02247896      -0.00189765      -2.46152668      -0.57666801       0.26503282      -0.23454574      -0.50131640      -0.05196404
O        0.27802208      -1.15791752      -0.29415374      -3.21953655      -0.59652482       0.57322067      -1.36834011       0.37417599       0.23473068
O        0.91730869       1.03255052       0.32234203       2.02175006      -0.63704048      -0.12486502       0.03862728      -0.36974712      -0.01509771
C        3.54456991       0.44691491       0.29377791       0.14812212       0.08261467       0.63770855       1.67923215       0.16471744       0.46596254
C        2.83114187      -0.40788313      -0.30177134       3.63768155       0.01655986      -0.60389461       0.21154784       0.28840739      -0.04098429
H        3.21323438       1.46631986       0.34536291       0.21258278       0.50586996      -0.09648188       0.05407181       0.28198526       0.32678022
H        4.55850986       0.19763208       0.71640814       0.27264163       0.67115135       0.41099176      -0.60394427       0.24861020      -0.22997393
H        1.89153736       0.74127645      -0.12330706      -0.15396494       0.06210187      -0.67904047      -0.00051041      -0.36334758      -0.48725896
H        2.32071814      -0.88302688      -1.12200071      -0.45774997       0.47193559      -0.38267182       0.22386144      -0.12348518      -0.20219452
9
Lattice="13.0 0.0 0.0 0.0 9.0 0.0 0.0 0.0 9.0" Properties=species:S:1:pos:R:3:momenta:R:3:forces:R:3 EPS_SCF=1e-06 energy=-1398.9349793936763 units=gap_units Integrated_spin_density=6.55109e-05 opt_dir=/home/tks32/dft_pbe/apr_8_opt_fragments_subset/singlepoint_1_CO2 time=35.0 free_energy=-1398.9349793936763 pbc="T T T"
C        0.34170191      -0.02655885      -0.00187897      -2.46152668      -0.57666801       0.26503282      -0.28974277      -0.19315062       0.04845924
O        0.24805571      -1.15534181      -0.29025911      -3.21953655      -0.59652482       0.57322067      -1.54011126      -0.20105239       0.07121425
O        0.91955854       1.02144013       0.32036985       2.02175006      -0.63704048      -0.12486502       0.06958885      -0.09244083       0.10190951
C        3.56993054       0.44955698       0.29665640       0.14812212       0.08261467       0.63770855       0.45775889       0.66347173       0.03817313
C        2.84162690      -0.40525946      -0.30434181       3.63768155       0.01655986      -0.60389461       0.33305494       0.64345141       0.23643282
H        3.21623414       1.47753325       0.35358947       0.21258278       0.50586996      -0.09648188       0.20402067      -0.27290874       0.27316404
H        4.55658625       0.19859238       0.71641450       0.27264163       0.67115135       0.41099176       0.17197389       0.10276766       0.05239951
H        1.88436534       0.73082977      -0.13682791      -0.15396494       0.06210187      -0.67904047       0.30822312      -0.37518811      -0.44314571
H        2.32449082      -0.87740505      -1.11896193      -0.45774997       0.47193559      -0.38267182       0.28523367      -0.27495010      -0.37860678
9
Lattice="13.0 0.0 0.0 0.0 9.0 0.0 0.0 0.0 9.0" Properties=species:S:1:pos:R:3:momenta:R:3:forces:R:3 EPS_SCF=1e-06 energy=-1399.0209136772182 units=gap_units Integrated_spin_density=6.55109e-05 opt_dir=/home/tks32/dft_pbe/apr_8_opt_fragments_subset/singlepoint_1_CO2 time=35.0 free_energy=-1399.0209136772182 pbc="T T T"
C        0.33416568      -0.03179034      -0.00156244      -2.46152668      -0.57666801       0.26503282      -0.25224191       0.19301286       0.17364587
O        0.20888413      -1.15402553      -0.28596117      -3.21953655      -0.59652482       0.57322067      -1.74091031      -0.67430833      -0.06705577
O        0.92221635       1.00986011       0.31904198       2.02175006      -0.63704048      -0.12486502       0.02829779       0.01487648       0.14486250
C        3.59788074       0.45625598       0.29974404       0.14812212       0.08261467       0.63770855      -0.62768828       1.16328090      -0.33517343
C        2.85406695      -0.39870183      -0.30543531       3.63768155       0.01655986      -0.60389461       0.22606472       0.75425353       0.24097233
H        3.22046195       1.48696842       0.36342282       0.21258278       0.50586996      -0.09648188       0.34303629      -0.62957805       0.23288047
H        4.55573743       0.20017617       0.71674308       0.27264163       0.67115135       0.41099176       1.05591859      -0.06752789       0.39473169
H        1.87915277       0.71816861      -0.15295383      -0.15396494       0.06210187      -0.67904047       0.50879403      -0.38380303      -0.35865694
H        2.32998416      -0.87352425      -1.11827869      -0.45774997       0.47193559      -0.38267182       0.45872908      -0.37020648      -0.42620672
9
Lattice="13.0 0.0 0.0 0.0 9.0 0.0 0.0 0.0 9.0" Properties=species:S:1:pos:R:3:momenta:R:3:forces:R:3 EPS_SCF=1e-06 energy=-1399.14744481624 units=gap_units Integrated_spin_density=6.55109e-05 opt_dir=/home/tks32/dft_pbe/apr_8_opt_fragments_subset/singlepoint_1_CO2 time=35.0 free_energy=-1399.14744481624 pbc="T T T"
C        0.32503622      -0.03571681      -0.00011106      -2.46152668      -0.57666801       0.26503282      -0.22725218       0.03862342       0.15612038
O        0.15861623      -1.15713599      -0.28213598      -3.21953655      -0.59652482       0.57322067      -1.79445997      -0.41904408      -0.01384173
O        0.92503874       0.99846797       0.31867327       2.02175006      -0.63704048      -0.12486502      -0.05839453      -0.02348011       0.11371279
C        3.62150151       0.47052170       0.30061231       0.14812212       0.08261467       0.63770855      -0.94363648       1.24293157      -0.43389783
C        2.86789047      -0.38725534      -0.30494199       3.63768155       0.01655986      -0.60389461      -0.09118806       0.63823241      -0.03486638
H        3.22690350       1.49220640       0.37470463       0.21258278       0.50586996      -0.09648188       0.37101580      -0.56546302       0.22127849
H        4.56181109       0.20130530       0.71965442       0.27264163       0.67115135       0.41099176       1.48876827      -0.12473971       0.56051397
H        1.87731332       0.70309259      -0.17130285      -0.15396494       0.06210187      -0.67904047       0.51753156      -0.37095611      -0.22634130
H        2.33843908      -0.87209847      -1.12039226      -0.45774997       0.47193559      -0.38267182       0.73761559      -0.41610438      -0.34267840
9
Lattice="13.0 0.0 0.0 0.0 9.0 0.0 0.0 0.0 9.0" Properties=species:S:1:pos:R:3:momenta:R:3:forces:R:3 EPS_SCF=1e-06 energy=-1399.3319899758833 units=gap_units Integrated_spin_density=6.55109e-05 opt_dir=/home/tks32/dft_pbe/apr_8_opt_fragments_subset/singlepoint_1_CO2 time=35.0 free_energy=-1399.3319899758833 pbc="T T T"
C        0.31424279      -0.03932358       0.00251592      -2.46152668      -0.57666801       0.26503282      -0.25180302      -0.52487220       0.02816753
O        0.09506210      -1.16340716      -0.27844165      -3.21953655      -0.59652482       0.57322067      -1.48969742       0.50202732       0.21173896
O        0.92739876       0.98697425       0.31917042       2.02175006      -0.63704048      -0.12486502      -0.20099811      -0.22683572       0.00069851
C        3.63779856       0.49412849       0.29818031       0.14812212       0.08261467       0.63770855      -0.22685911       0.55859849      -0.16608260
C        2.88092856      -0.37104007      -0.30471671       3.63768155       0.01655986      -0.60389461      -0.51482893       0.41490446      -0.42934827
H        3.23611866       1.49311576       0.38759057       0.21258278       0.50586996      -0.09648188       0.20063022       0.01311055       0.25362913
H        4.57914753       0.20147973       0.72680195       0.27264163       0.67115135       0.41099176       1.11208989       0.04573827       0.36802048
H        1.87941568       0.68530153      -0.19124686      -0.15396494       0.06210187      -0.67904047       0.33185377      -0.33261252      -0.05339800
H        2.35243753      -0.87384161      -1.12509344      -0.45774997       0.47193559      -0.38267182       1.03961272      -0.45005864      -0.21342575
9
Lattice="13.0 0.0 0.0 0.0 9.0 0.0 0.0 0.0 9.0" Properties=species:S:1:pos:R:3:momenta:R:3:forces:R:3 EPS_SCF=1e-06 energy=-1399.5132926201834 units=gap_units Integrated_spin_density=6.55109e-05 opt_dir=/home/tks32/dft_pbe/apr_8_opt_fragments_subset/singlepoint_1_CO2 time=35.0 free_energy=-1399.5132926201834 pbc="T T T"
C        0.30102560      -0.04808961       0.00540598      -2.46152668      -0.57666801       0.26503282      -0.12899223      -0.42575005       0.06598782
O        0.01716702      -1.16468856      -0.27267871      -3.21953655      -0.59652482       0.57322067      -0.90236280       1.06893760       0.32980186
O        0.92776186       0.97330714       0.31967165       2.02175006      -0.63704048      -0.12486502      -0.48009833      -0.61596748      -0.18309267
C        3.65176452       0.52311404       0.29412311       0.14812212       0.08261467       0.63770855       0.99526534      -0.56247382       0.30690572
C        2.88881220      -0.35082219      -0.30872973       3.63768155       0.01655986      -0.60389461      -0.91025496       0.17739972      -0.75592606
H        3.24726153       1.49414934       0.40290643       0.21258278       0.50586996      -0.09648188      -0.09651027       0.82425086       0.33127295
H        4.60736037       0.20210454       0.73754077       0.27264163       0.67115135       0.41099176       0.27185827       0.36926838      -0.05737246
H        1.88478101       0.66432890      -0.21160483      -0.15396494       0.06210187      -0.67904047       0.05517974      -0.32078959       0.10747351
H        2.37661604      -0.88001627      -1.13187417      -0.45774997       0.47193559      -0.38267182       1.19591524      -0.51487562      -0.14505067
9
Lattice="13.0 0.0 0.0 0.0 9.0 0.0 0.0 0.0 9.0" Properties=species:S:1:pos:R:3:momenta:R:3:forces:R:3 EPS_SCF=1e-06 energy=-1399.7132951227481 units=gap_units Integrated_spin_density=6.55109e-05 opt_dir=/home/tks32/dft_pbe/apr_8_opt_fragments_subset/singlepoint_1_CO2 time=35.0 free_energy=-1399.7132951227481 pbc="T T T"
C        0.28637631      -0.06174305       0.00904649      -2.46152668      -0.57666801       0.26503282       0.01549178       0.25130072       0.23426191
O       -0.07081341      -1.15359168      -0.26312505      -3.21953655      -0.59652482       0.57322067      -0.52964473       0.67079744       0.16619559
O        0.92256641       0.95257352       0.31805138       2.02175006      -0.63704048      -0.12486502      -0.73332343      -0.59699905      -0.17134384
C        3.67718577       0.54545568       0.29363687       0.14812212       0.08261467       0.63770855       1.37130408      -0.90263586       0.53947227
C        2.88612381      -0.32864418      -0.32147367       3.63768155       0.01655986      -0.60389461      -1.00225512       0.24654278      -0.71169779
H        3.25723599       1.50471842       0.42198601       0.21258278       0.50586996      -0.09648188      -0.15619618       0.87026205       0.32816944
H        4.63858979       0.20700055       0.74756605       0.27264163       0.67115135       0.41099176      -0.10660184       0.51814463      -0.30494158
H        1.89076029       0.63973996      -0.23062503      -0.15396494       0.06210187      -0.67904047       0.04226783      -0.43822947       0.12474044
H        2.41452518      -0.89212187      -1.14030253      -0.45774997       0.47193559      -0.38267182       1.09895761      -0.61918324      -0.20485643
9
Lattice="13.0 0.0 0.0 0.0 9.0 0.0 0.0 0.0 9.0" Properties=species:S:1:pos:R:3:momenta:R:3:forces:R:3 EPS_SCF=1e-06 energy=-1399.9339192233615 units=gap_units Integrated_spin_density=6.55109e-05 opt_dir=/home/tks32/dft_pbe/apr_8_opt_fragments_subset/singlepoint_1_CO2 time=35.0 free_energy=-1399.9339192233615 pbc="T T T"
C        0.27199010      -0.07192701       0.01586293      -2.46152668      -0.57666801       0.26503282      -0.58148615      -0.25243189       0.06407635
O       -0.16569020      -1.13340307      -0.25134309      -3.21953655      -0.59652482       0.57322067      -0.10793621       0.38742755       0.01358142
O        0.90740706       0.92378709       0.31410444       2.02175006      -0.63704048      -0.12486502      -0.62887986       0.52049049       0.31445176
C        3.72118342       0.55543052       0.30049596       0.14812212       0.08261467       0.63770855      -0.48794812      -0.69308130      -0.16809804
C        2.86980174      -0.30318912      -0.34386025       3.63768155       0.01655986      -0.60389461      -0.12462463       1.33024449       0.18157345
H        3.26504868       1.52709634       0.44546483       0.21258278       0.50586996      -0.09648188       0.22395079      -0.16265810       0.15456925
H        4.66825683       0.21893239       0.75340457       0.27264163       0.67115135       0.41099176       0.33521566       0.27950623      -0.19391037
H        1.89729365       0.60927320      -0.24787942      -0.15396494       0.06210187      -0.67904047       0.50694436      -0.72470765      -0.09742688
H        2.46725890      -0.91261302      -1.15148949      -0.45774997       0.47193559      -0.38267182       0.86476415      -0.68478981      -0.26881694
9
Lattice="13.0 0.0 0.0 0.0 9.0 0.0 0.0 0.0 9.0" Properties=species:S:1:pos:R:3:momenta:R:3:forces:R:3 EPS_SCF=1e-06 energy=-1400.1087283600925 units=gap_units Integrated_spin_density=6.55109e-05 opt_dir=/home/tks32/dft_pbe/apr_8_opt_fragments_subset/singlepoint_1_CO2 time=35.0 free_energy=-1400.1087283600925 pbc="T T T"
C        0.24750068      -0.08648696       0.02377948      -2.46152668      -0.57666801       0.26503282      -0.50786021       0.48920965       0.20380520
O       -0.26220934      -1.10650977      -0.23935407      -3.21953655      -0.59652482       0.57322067       0.02163930      -0.34345626      -0.20086934