9
Lattice="13.0 0.0 0.0 0.0 9.0 0.0 0.0 0.0 9.0" Properties=species:S:1:pos:R:3:momenta:R:3:forces:R:3 EPS_SCF=1e-06 energy=-1399.505742798047 units=gap_units Integrated_spin_density=6.55109e-05 opt_dir=/home/tks32/dft_pbe/apr_8_opt_fragments_subset/singlepoint_1_CO2 time=125.0 free_energy=-1399.505742798047 pbc="T T T"
C       -0.10119581      -0.43462250      -0.01222553      -0.21417287      -0.86916255      -1.97027898       4.28789362       1.81996219       0.91276108
O       -1.23038529      -0.11459343      -0.07031027       1.46849462       1.88045987       1.98811314       0.65255176      -1.05901565      -0.18107551
O        1.20793239      -0.44647805       0.03408376       0.47328398      -0.44545860      -0.09846341      -2.31972897      -0.71342510      -0.82262756
C        4.27649351       1.13553844       0.06180584      -0.14359236      -0.95086422      -0.29804835       0.16455238      -0.45166774      -0.21940730
C        4.06257836      -0.20867124      -0.04778687      -2.46373772       1.39660256       1.00344400      -2.91375359       1.93170225       0.38124340
H        3.53034701       1.94302513      -0.27170648       0.46822618       0.14613576      -0.01928255       0.72042495      -0.91518164       0.27036599
H        5.26892863       1.62363198       0.34049363       0.54550959      -0.69448211      -0.27750750      -1.00796461      -0.90390104      -0.23229659
H        1.63072713       0.27872811       0.57923304      -0.21484178      -0.29783462      -0.45911887      -0.57422489       0.26304630       0.09181134
H        3.09191654      -0.80547301      -0.09440214       0.08083037      -0.16539608       0.13114253       0.99024936       0.02848043      -0.20077486
9
Lattice="13.0 0.0 0.0 0.0 9.0 0.0 0.0 0.0 9.0" Properties=species:S:1:pos:R:3:momenta:R:3:forces:R:3 EPS_SCF=1e-06 energy=-1399.8307764746778 units=gap_units Integrated_spin_density=6.55109e-05 opt_dir=/home/tks32/dft_pbe/apr_8_opt_fragments_subset/singlepoint_1_CO2 time=125.0 free_energy=-1399.8307764746778 pbc="T T T"
C       -0.05831687      -0.41642288      -0.00309792      -0.21417287      -0.86916255      -1.97027898      -1.20945073       2.17925277       0.46261626
O       -1.22385977      -0.12518359      -0.07212103       1.46849462       1.88045987       1.98811314       2.71548682      -1.50901985      -0.00158836
O        1.18473510      -0.45361230       0.02585748       0.47328398      -0.44545860      -0.09846341       0.83114036      -0.44339502      -0.44567983
C        4.27813903       1.13102176       0.05961177      -0.14359236      -0.95086422      -0.29804835      -0.14933171      -0.13873411      -0.19027393
C        4.03344082      -0.18935422      -0.04397444      -2.46373772       1.39660256       1.00344400      -2.22625539       1.46594355       0.35378612
H        3.53755126       1.93387331      -0.26900282       0.46822618       0.14613576      -0.01928255       0.53728861      -0.67817796       0.20179469
H        5.25884898       1.61459297       0.33817066       0.54550959      -0.69448211      -0.27750750      -0.69623657      -0.80604397      -0.15129332
H        1.62498488       0.28135857       0.58015115      -0.21484178      -0.29783462      -0.45911887      -0.38522406       0.19191658       0.00554664
H        3.10181903      -0.80518821      -0.09640989       0.08083037      -0.16539608       0.13114253       0.58258267      -0.26174200      -0.23490826
9
Lattice="13.0 0.0 0.0 0.0 9.0 0.0 0.0 0.0 9.0" Properties=species:S:1:pos:R:3:momenta:R:3:forces:R:3 EPS_SCF=1e-06 energy=-1400.0982608180705 units=gap_units Integrated_spin_density=6.55109e-05 opt_dir=/home/tks32/dft_pbe/apr_8_opt_fragments_subset/singlepoint_1_CO2 time=125.0 free_energy=-1400.0982608180705 pbc="T T T"
C       -0.03343215      -0.37534645       0.01035961      -0.21417287      -0.86916255      -1.97027898      -2.16204149       1.05918400       0.13071114
O       -1.18721307      -0.15181596      -0.07376870       1.46849462       1.88045987       1.98811314       0.38384167      -0.68062711      -0.00511567
O        1.17327658      -0.46505798       0.01340309       0.47328398      -0.44545860      -0.09846341       3.40691137       0.00667263       0.02688095
C        4.27792768       1.12538452       0.05548079      -0.14359236      -0.95086422      -0.29804835      -0.66557031      -0.45778936      -0.17965396
C        3.98198761      -0.15535583      -0.03653390      -2.46373772       1.39660256       1.00344400      -0.72118731       1.51554947       0.35013263
H        3.55012400       1.91795111      -0.26428265       0.46822618       0.14613576      -0.01928255       0.19228840      -0.20808117       0.04515452
H        5.24188708       1.59732322       0.33436544       0.54550959      -0.69448211      -0.27750750      -0.10961055      -0.61998934      -0.00123764
H        1.61545124       0.28590092       0.58104031      -0.21484178      -0.29783462      -0.45911887      -0.18687327       0.11248376      -0.08850245
H        3.11733350      -0.80789812      -0.10087900       0.08083037      -0.16539608       0.13114253      -0.13775852      -0.72740289      -0.27836952
9
Lattice="13.0 0.0 0.0 0.0 9.0 0.0 0.0 0.0 9.0" Properties=species:S:1:pos:R:3:momenta:R:3:forces:R:3 EPS_SCF=1e-06 energy=-1400.1940675905066 units=gap_units Integrated_spin_density=6.55109e-05 opt_dir=/home/tks32/dft_pbe/apr_8_opt_fragments_subset/singlepoint_1_CO2 time=125.0 free_energy=-1400.1940675905066 pbc="T T T"
C       -0.03724605      -0.32553731       0.02405598      -0.21417287      -0.86916255      -1.97027898       5.77699131      -0.94003087       0.19680511
O       -1.14957778      -0.18403626      -0.07531363       1.46849462       1.88045987       1.98811314      -5.24509545       0.46179049      -0.35153689
O        1.20426548      -0.47527820       0.00252001       0.47328398      -0.44545860      -0.09846341       0.41317780       0.95125780       0.43640389
C        4.26966883       1.11476129       0.04958499      -0.14359236      -0.95086422      -0.29804835      -0.82228651      -1.01331088      -0.11187133
C        3.92693685      -0.10638447      -0.02559281      -2.46373772       1.39660256       1.00344400       0.19419983       1.44448549       0.29473729
H        3.56377056       1.90109858      -0.25948710       0.46822618       0.14613576      -0.01928255      -0.22038298       0.36371673      -0.16427273
H        5.22529257       1.57426440       0.33092573       0.54550959      -0.69448211      -0.27750750       0.39999276      -0.47874047       0.12379300
H        1.60460552       0.29135266       0.58076765      -0.21484178      -0.29783462      -0.45911887      -0.21576446      -0.00498974      -0.16221441
H        3.12962649      -0.81915526      -0.10827584       0.08083037      -0.16539608       0.13114253      -0.28083230      -0.78417855      -0.26184393
9
Lattice="13.0 0.0 0.0 0.0 9.0 0.0 0.0 0.0 9.0" Properties=species:S:1:pos:R:3:momenta:R:3:forces:R:3 EPS_SCF=1e-06 energy=-1400.3100741212877 units=gap_units Integrated_spin_density=6.55109e-05 opt_dir=/home/tks32/dft_pbe/apr_8_opt_fragments_subset/singlepoint_1_CO2 time=125.0 free_energy=-1400.3100741212877 pbc="T T T"
C       -0.02280357      -0.32788739       0.02454800      -0.21417287      -0.86916255      -1.97027898       1.64420262      -0.41892635      -0.05799440
O       -1.16269052      -0.18288178      -0.07619248       1.46849462       1.88045987       1.98811314      -2.02042685       0.04099653      -0.08032361
O        1.20529842      -0.47290005       0.00361102       0.47328398      -0.44545860      -0.09846341       1.15465922       0.68164259       0.28411845
C        4.26761311       1.11222801       0.04930531      -0.14359236      -0.95086422      -0.29804835      -0.64833250      -0.65700580      -0.08595747
C        3.92742235      -0.10277326      -0.02485596      -2.46373772       1.39660256       1.00344400      -0.04768196       1.04722505       0.26287690
H        3.56321960       1.90200787      -0.25989778       0.46822618       0.14613576      -0.01928255      -0.19625448       0.33366459      -0.15259761
H        5.22629255       1.57306755       0.33123521       0.54550959      -0.69448211      -0.27750750       0.31812429      -0.51344466       0.10043209
H        1.60406611       0.29134018       0.58036212      -0.21484178      -0.29783462      -0.45911887      -0.10844795       0.16247324      -0.02230447
H        3.12892441      -0.82111570      -0.10893045       0.08083037      -0.16539608       0.13114253      -0.09584240      -0.67662519      -0.24824989
9
Lattice="13.0 0.0 0.0 0.0 9.0 0.0 0.0 0.0 9.0" Properties=species:S:1:pos:R:3:momenta:R:3:forces:R:3 EPS_SCF=1e-06 energy=-1400.3260506197357 units=gap_units Integrated_spin_density=6.55109e-05 opt_dir=/home/tks32/dft_pbe/apr_8_opt_fragments_subset/singlepoint_1_CO2 time=125.0 free_energy=-1400.3260506197357 pbc="T T T"
C       -0.00471046      -0.33130058       0.02481110      -0.21417287      -0.86916255      -1.97027898      -2.82623890       0.14270330      -0.29519547
O       -1.18075266      -0.18171572      -0.07723233       1.46849462       1.88045987       1.98811314       1.40033406      -0.41193051       0.18675708
O        1.20980601      -0.46864752       0.00547333       0.47328398      -0.44545860      -0.09846341       1.94921640       0.31504018       0.05040396
C        4.26375399       1.10791220       0.04878724      -0.14359236      -0.95086422      -0.29804835      -0.29853106       0.13776195      -0.03111850
C        3.92771155      -0.09627814      -0.02337823      -2.46373772       1.39660256       1.00344400      -0.48731644       0.18539495       0.19438195
H        3.56211561       1.90386016      -0.26074025       0.46822618       0.14613576      -0.01928255      -0.15037784       0.27672088      -0.13151191
H        5.22817830       1.57039938       0.33182495       0.54550959      -0.69448211      -0.27750750       0.17783223      -0.57192753       0.05998373
H        1.60324459       0.29183241       0.57992802      -0.21484178      -0.29783462      -0.45911887       0.03678728       0.40895473       0.18736346
H        3.12799555      -0.82497676      -0.11028885       0.08083037      -0.16539608       0.13114253       0.19829428      -0.48271795      -0.22106431
9
Lattice="13.0 0.0 0.0 0.0 9.0 0.0 0.0 0.0 9.0" Properties=species:S:1:pos:R:3:momenta:R:3:forces:R:3 EPS_SCF=1e-06 energy=-1400.335144560671 units=gap_units Integrated_spin_density=6.55109e-05 opt_dir=/home/tks32/dft_pbe/apr_8_opt_fragments_subset/singlepoint_1_CO2 time=125.0 free_energy=-1400.335144560671 pbc="T T T"
C       -0.00647686      -0.33121139       0.02462660      -0.21417287      -0.86916255      -1.97027898      -2.37028203       0.09395018      -0.27392803
O       -1.17987746      -0.18197317      -0.07711561       1.46849462       1.88045987       1.98811314       1.18009576      -0.38523644       0.16687517
O        1.21102427      -0.46845062       0.00550483       0.47328398      -0.44545860      -0.09846341       1.72589347       0.34847989       0.05925996
C        4.26356740       1.10799830       0.04876779      -0.14359236      -0.95086422      -0.29804835      -0.29389835       0.13898582      -0.03063457
C        3.92740698      -0.09616226      -0.02325674      -2.46373772       1.39660256       1.00344400      -0.48036948       0.18622936       0.19314274
H        3.56202162       1.90403311      -0.26082244       0.46822618       0.14613576      -0.01928255      -0.14870056       0.27441736      -0.13088619
H        5.22828945       1.57004192       0.33186244       0.54550959      -0.69448211      -0.27750750       0.17568105      -0.57188122       0.05909200
H        1.60326758       0.29208801       0.58004512      -0.21484178      -0.29783462      -0.45911887       0.01827939       0.39465474       0.17703672
H        3.12811948      -0.82527846      -0.11042702       0.08083037      -0.16539608       0.13114253       0.19330075      -0.47959969      -0.21995782
9
Lattice="13.0 0.0 0.0 0.0 9.0 0.0 0.0 0.0 9.0" Properties=species:S:1:pos:R:3:momenta:R:3:forces:R:3 EPS_SCF=1e-06 energy=-1400.3487536460013 units=gap_units Integrated_spin_density=6.55109e-05 opt_dir=/home/tks32/dft_pbe/apr_8_opt_fragments_subset/singlepoint_1_CO2 time=125.0 free_energy=-1400.3487536460013 pbc="T T T"
C       -0.00971856      -0.33106565       0.02426964      -0.21417287      -0.86916255      -1.97027898      -1.53310193       0.00499052      -0.23349237
O       -1.17826731      -0.18247337      -0.07689426       1.46849462       1.88045987       1.98811314       0.76826709      -0.33544129       0.12954345
O        1.21332354      -0.46803054       0.00557448       0.47328398      -0.44545860      -0.09846341       1.32199082       0.40731710       0.07412531
C        4.26319465       1.10817266       0.04872894      -0.14359236      -0.95086422      -0.29804835      -0.28498908       0.14118947      -0.02968141
C        3.92679807      -0.09592819      -0.02301279      -2.46373772       1.39660256       1.00344400      -0.46686588       0.18786856       0.19071460
H        3.56183340       1.90438002      -0.26098764       0.46822618       0.14613576      -0.01928255      -0.14535491       0.27003537      -0.12963154
H        5.22851192       1.56932165       0.33193737       0.54550959      -0.69448211      -0.27750750       0.17138495      -0.57165010       0.05732363
H        1.60330101       0.29259309       0.58027390      -0.21484178      -0.29783462      -0.45911887      -0.01530886       0.36934939       0.15890867
H        3.12836574      -0.82588424      -0.11070466       0.08083037      -0.16539608       0.13114253       0.18397780      -0.47365902      -0.21781034
9
Lattice="13.0 0.0 0.0 0.0 9.0 0.0 0.0 0.0 9.0" Properties=species:S:1:pos:R:3:momenta:R:3:forces:R:3 EPS_SCF=1e-06 energy=-1400.360507425123 units=gap_units Integrated_spin_density=6.55109e-05 opt_dir=/home/tks32/dft_pbe/apr_8_opt_fragments_subset/singlepoint_1_CO2 time=125.0 free_energy=-1400.360507425123 pbc="T T T"
C       -0.01387418      -0.33093044       0.02375982      -0.21417287      -0.86916255      -1.97027898      -0.45599651      -0.10791991      -0.17863764
O       -1.17619775      -0.18319444      -0.07659042       1.46849462       1.88045987       1.98811314       0.22626549      -0.27034186       0.07998432
O        1.21646050      -0.46732353       0.00569703       0.47328398      -0.44545860      -0.09846341       0.81118737       0.47723285       0.08974240
C        4.26262902       1.10844360       0.04867000      -0.14359236      -0.95086422      -0.29804835      -0.27235001       0.14390516      -0.02827869
C        3.92587303      -0.09556580      -0.02263922      -2.46373772       1.39660256       1.00344400      -0.44757923       0.19020872       0.18715866
H        3.56154661       1.90491031      -0.26124100       0.46822618       0.14613576      -0.01928255      -0.14030414       0.26397331      -0.12772023
H        5.22885055       1.56821175       0.33205109       0.54550959      -0.69448211      -0.27750750       0.16489497      -0.57093349       0.05468485
H        1.60331874       0.29334595       0.58060813      -0.21484178      -0.29783462      -0.45911887      -0.05770482       0.33927103       0.13778317
H        3.12873595      -0.82681195      -0.11113044       0.08083037      -0.16539608       0.13114253       0.17158689      -0.46539582      -0.21471684
9
Lattice="13.0 0.0 0.0 0.0 9.0 0.0 0.0 0.0 9.0" Properties=species:S:1:pos:R:3:momenta:R:3:forces:R:3 EPS_SCF=1e-06 energy=-1400.3663985645726 units=gap_units Integrated_spin_density=6.55109e-05 opt_dir=/home/tks32/dft_pbe/apr_8_opt_fragments_subset/singlepoint_1_CO2 time=125.0 free_energy=-1400.3663985645726 pbc="T T T"
C       -0.01807572      -0.33091798       0.02312019      -0.21417287      -0.86916255      -1.97027898       0.64990005      -0.22027029      -0.11833037
O       -1.17410616      -0.18411700      -0.07623603       1.46849462       1.88045987       1.98811314      -0.33636369      -0.20402205       0.02750565
O        1.22010470      -0.46620425       0.00589815       0.47328398      -0.44545860      -0.09846341       0.28618020       0.53913192       0.09864393
C        4.26184433       1.10883308       0.04858833      -0.14359236      -0.95086422      -0.29804835      -0.25653034       0.14642321      -0.02644340
C        3.92458753      -0.09504716      -0.02211360      -2.46373772       1.39660256       1.00344400      -0.42380540       0.19294474       0.18248785
H        3.56114651       1.90565472      -0.26159828       0.46822618       0.14613576      -0.01928255      -0.13332878       0.25676443      -0.12504759
H        5.22932219       1.56663504       0.33220879       0.54550959      -0.69448211      -0.27750750       0.15597766      -0.56917724       0.05112628
H        1.60327629       0.29436687       0.58104837      -0.21484178      -0.29783462      -0.45911887      -0.10010428       0.31361783       0.12081077
H        3.12924279      -0.82811789      -0.11173094       0.08083037      -0.16539608       0.13114253       0.15807458      -0.45541256      -0.21075311
9
Lattice="13.0 0.0 0.0 0.0 9.0 0.0 0.0 0.0 9.0" Properties=species:S:1:pos:R:3:momenta:R:3:forces:R:3 EPS_SCF=1e-06 energy=-1400.3680862652352 units=gap_units Integrated_spin_density=6.55109e-05 opt_dir=/home/tks32/dft_pbe/apr_8_opt_fragments_subset/singlepoint_1_CO2 time=125.0 free_energy=-1400.3680862652352 pbc="T T T"
C       -0.02114780      -0.33114717       0.02241538      -0.21417287      -0.86916255      -1.97027898       1.50100137      -0.30009711      -0.06760532
O       -1.17259084      -0.18516997      -0.07588705       1.46849462       1.88045987       1.98811314      -0.75405890      -0.15743223      -0.01350422
O        1.22369682      -0.46460848       0.00618681       0.47328398      -0.44545860      -0.09846341      -0.14425698       0.57300281       0.09370121
C        4.26085813       1.10934343       0.04848598      -0.14359236      -0.95086422      -0.29804835      -0.23902794       0.14786787      -0.02432227
C        3.92296803      -0.09436980      -0.02144137      -2.46373772       1.39660256       1.00344400      -0.39881555       0.19526843       0.17695744
H        3.56064091       1.90660492      -0.26205632       0.46822618       0.14613576      -0.01928255      -0.12458088       0.24939179      -0.12164903
H        5.22991691       1.56459479       0.33240651       0.54550959      -0.69448211      -0.27750750       0.14495845      -0.56584449       0.04682004
H        1.60312884       0.29562799       0.58157645      -0.21484178      -0.29783462      -0.45911887      -0.13174297       0.30263230       0.11580594
H        3.12987147      -0.82979028      -0.11250141       0.08083037      -0.16539608       0.13114253       0.14652339      -0.44478937      -0.20620380
9
Lattice="13.0 0.0 0.0 0.0 9.0 0.0 0.0 0.0 9.0" Properties=species:S:1:pos:R:3:momenta:R:3:forces:R:3 EPS_SCF=1e-06 energy=-1400.3687697461296 units=gap_units Integrated_spin_density=6.55109e-05 opt_dir=/home/tks32/dft_pbe/apr_8_opt_fragments_subset/singlepoint_1_CO2 time=125.0 free_energy=-1400.3687697461296 pbc="T T T"
C       -0.02091327      -0.33119406       0.02240481      -0.21417287      -0.86916255      -1.97027898       1.45066291      -0.29392618      -0.07003654
O       -1.17270867      -0.18519457      -0.07588916       1.46849462       1.88045987       1.98811314      -0.72102464      -0.16187922      -0.01092066
O        1.22367428      -0.46451895       0.00620145       0.47328398      -0.44545860      -0.09846341      -0.12965010       0.56856242       0.09140398
C        4.26082078       1.10936653       0.04848218      -0.14359236      -0.95086422      -0.29804835      -0.23874976       0.14764627      -0.02428916
C        3.92290572      -0.09433929      -0.02141372      -2.46373772       1.39660256       1.00344400      -0.39879039       0.19514832       0.17680349
H        3.56062144       1.90664389      -0.26207532       0.46822618       0.14613576      -0.01928255      -0.12420879       0.24941397      -0.12151089
H        5.22993956       1.56450638       0.33241383       0.54550959      -0.69448211      -0.27750750       0.14460975      -0.56551562       0.04669638
H        1.60310825       0.29567527       0.58159454      -0.21484178      -0.29783462      -0.45911887      -0.12976418       0.30525888       0.11795192
H        3.12989436      -0.82985978      -0.11253363       0.08083037      -0.16539608       0.13114253       0.14691519      -0.44470884      -0.20609850
9
Lattice="13.0 0.0 0.0 0.0 9.0 0.0 0.0 0.0 9.0" Properties=species:S:1:pos:R:3:momenta:R:3:forces:R:3 EPS_SCF=1e-06 energy=-1400.3700723452207 units=gap_units Integrated_spin_density=6.55109e-05 opt_dir=/home/tks32/dft_pbe/apr_8_opt_fragments_subset/singlepoint_1_CO2 time=125.0 free_energy=-1400.3700723452207 pbc="T T T"
C       -0.02045230      -0.33128689       0.02238324      -0.21417287      -0.86916255      -1.97027898       1.35197190      -0.28182639      -0.07477372
O       -1.17293891      -0.18524459      -0.07589294       1.46849462       1.88045987       1.98811314      -0.65637211      -0.17058904      -0.00587770
O        1.22363167      -0.46434043       0.00623037       0.47328398      -0.44545860      -0.09846341      -0.10093651       0.55981905       0.08687387
C        4.26074604       1.10941276       0.04847457      -0.14359236      -0.95086422      -0.29804835      -0.23819197       0.14720674      -0.02422199
C        3.92278094      -0.09427821      -0.02135838      -2.46373772       1.39660256       1.00344400      -0.39872589       0.19490522       0.17649254
H        3.56058253       1.90672192      -0.26211336       0.46822618       0.14613576      -0.01928255      -0.12346367       0.24945369      -0.12123471
H        5.22998485       1.56432939       0.33242846       0.54550959      -0.69448211      -0.27750750       0.14391329      -0.56485935       0.04644903
H        1.60306737       0.29577041       0.58163115      -0.21484178      -0.29783462      -0.45911887      -0.12587872       0.31042626       0.12217798
H        3.12994028      -0.82999893      -0.11259813       0.08083037      -0.16539608       0.13114253       0.14768368      -0.44453618      -0.20588531
9
Lattice="13.0 0.0 0.0 0.0 9.0 0.0 0.0 0.0 9.0" Properties=species:S:1:pos:R:3:momenta:R:3:forces:R:3 EPS_SCF=1e-06 energy=-1400.3718753920748 units=gap_units Integrated_spin_density=6.55109e-05 opt_dir=/home/tks32/dft_pbe/apr_8_opt_fragments_subset/singlepoint_1_CO2 time=125.0 free_energy=-1400.3718753920748 pbc="T T T"
C       -0.01978133      -0.33142382       0.02234966      -0.21417287      -0.86916255      -1.97027898       1.20898054      -0.26428704      -0.08156394
O       -1.17327046      -0.18532193      -0.07589746       1.46849462       1.88045987       1.98811314      -0.56295772      -0.18319181       0.00137487
O        1.22357419      -0.46407372       0.00627286       0.47328398      -0.44545860      -0.09846341      -0.05917102       0.54705385       0.08024117
C        4.26063366       1.10948225       0.04846314      -0.14359236      -0.95086422      -0.29804835      -0.23735047       0.14655602      -0.02411861
C        3.92259311      -0.09418632      -0.02127514      -2.46373772       1.39660256       1.00344400      -0.39859135       0.19453261       0.17601746
H        3.56052412       1.90683941      -0.26217056       0.46822618       0.14613576      -0.01928255      -0.12234196       0.24950100      -0.12082009
H        5.23005288       1.56406311       0.33245042       0.54550959      -0.69448211      -0.27750750       0.14286975      -0.56387740       0.04607744
H        1.60300674       0.29591484       0.58168723      -0.21484178      -0.29783462      -0.45911887      -0.12023601       0.31795932       0.12835002
H        3.13000957      -0.83020838      -0.11269518       0.08083037      -0.16539608       0.13114253       0.14879825      -0.44424655      -0.20555832
9
Lattice="13.0 0.0 0.0 0.0 9.0 0.0 0.0 0.0 9.0" Properties=species:S:1:pos:R:3:momenta:R:3:forces:R:3 EPS_SCF=1e-06 energy=-1400.3740250802045 units=gap_units Integrated_spin_density=6.55109e-05 opt_dir=/home/tks32/dft_pbe/apr_8_opt_fragments_subset/singlepoint_1_CO2 time=125.0 free_energy=-1400.3740250802045 pbc="T T T"
C       -0.01892526      -0.33160220       0.02230243      -0.21417287      -0.86916255      -1.97027898       1.02786599      -0.24204548      -0.09002866
O       -1.17368629      -0.18542975      -0.07590123       1.46849462       1.88045987       1.98811314      -0.44506307      -0.19913565       0.01046429
O        1.22351011      -0.46371956       0.00632784       0.47328398      -0.44545860      -0.09846341      -0.00603444       0.53069996       0.07170435
C        4.26048300       1.10957536       0.04844782      -0.14359236      -0.95086422      -0.29804835      -0.23621727       0.14570321      -0.02397560
C        3.92234092      -0.09406304      -0.02116351      -2.46373772       1.39660256       1.00344400      -0.39833755       0.19401952       0.17536590
H        3.56044603       1.90699719      -0.26224724       0.46822618       0.14613576      -0.01928255      -0.12083606       0.24953986      -0.12026554
H        5.23014391       1.56370582       0.33247980       0.54550959      -0.69448211      -0.27750750       0.14147833      -0.56257052       0.04558011
H        1.60292708       0.29611116       0.58176449      -0.21484178      -0.29783462      -0.45911887      -0.11306883       0.32758955       0.13626280
H        3.13010298      -0.83048955      -0.11282541       0.08083037      -0.16539608       0.13114253       0.15021291      -0.44380046      -0.20510765
9
Lattice="13.0 0.0 0.0 0.0 9.0 0.0 0.0 0.0 9.0" Properties=species:S:1:pos:R:3:momenta:R:3:forces:R:3 EPS_SCF=1e-06 energy=-1400.3763586358564 units=gap_units Integrated_spin_density=6.55109e-05 opt_dir=/home/tks32/dft_pbe/apr_8_opt_fragments_subset/singlepoint_1_CO2 time=125.0 free_energy=-1400.3763586358564 pbc="T T T"
C       -0.01791782      -0.33181853       0.02223916      -0.21417287      -0.86916255      -1.97027898       0.81702647      -0.21609077      -0.09966672
O       -1.17416315      -0.18557269      -0.07590222       1.46849462       1.88045987       1.98811314      -0.30838255      -0.21769028       0.02089841
O        1.22345106      -0.46327847       0.00639385       0.47328398      -0.44545860      -0.09846341       0.05606425       0.51135725       0.06153546
C        4.26029294       1.10969275       0.04842850      -0.14359236      -0.95086422      -0.29804835      -0.23477973       0.14465920      -0.02378817
C        3.92202210      -0.09390736      -0.02102261      -2.46373772       1.39660256       1.00344400      -0.39789494       0.19334973       0.17451947
H        3.56034788       1.90719673      -0.26234399       0.46822618       0.14613576      -0.01928255      -0.11893331       0.24954737      -0.11956810
H        5.23025845       1.56325456       0.33251675       0.54550959      -0.69448211      -0.27750750       0.13973617      -0.56093751       0.04495437
H        1.60282933       0.29636337       0.58186543      -0.21484178      -0.29783462      -0.45911887      -0.10470268       0.33894736       0.14563428
H        3.13022168      -0.83084492      -0.11298990       0.08083037      -0.16539608       0.13114253       0.15186631      -0.44314235      -0.20451900
9
Lattice="13.0 0.0 0.0 0.0 9.0 0.0 0.0 0.0 9.0" Properties=species:S:1:pos:R:3:momenta:R:3:forces:R:3 EPS_SCF=1e-06 energy=-1400.378734322681 units=gap_units Integrated_spin_density=6.55109e-05 opt_dir=/home/tks32/dft_pbe/apr_8_opt_fragments_subset/singlepoint_1_CO2 time=125.0 free_energy=-1400.378734322681 pbc="T T T"
C       -0.01680237      -0.33206845       0.02215675      -0.21417287      -0.86916255      -1.97027898       0.58725661      -0.18767597      -0.10985630
O       -1.17467112      -0.18575696      -0.07589777       1.46849462       1.88045987       1.98811314      -0.16004827      -0.23794510       0.03206742
O        1.22341223      -0.46275083       0.00646898       0.47328398      -0.44545860      -0.09846341       0.12385109       0.48981762       0.05009164
C        4.26006191       1.10983537       0.04840504      -0.14359236      -0.95086422      -0.29804835      -0.23302107       0.14343661      -0.02355031
C        3.92163351      -0.09371784      -0.02085121      -2.46373772       1.39660256       1.00344400      -0.39717284       0.19250142       0.17345350
H        3.56022917       1.90744007      -0.26246160       0.46822618       0.14613576      -0.01928255      -0.11661661       0.24949303      -0.11872338
H        5.23039724       1.56270511       0.33256149       0.54550959      -0.69448211      -0.27750750       0.13763905      -0.55897548       0.04419660
H        1.60271459       0.29667696       0.58199349      -0.21484178      -0.29783462      -0.45911887      -0.09556940       0.35154801       0.15609441
H        3.13036731      -0.83127798      -0.11319019       0.08083037      -0.16539608       0.13114253       0.15368144      -0.44220014      -0.20377359
9
Lattice="13.0 0.0 0.0 0.0 9.0 0.0 0.0 0.0 9.0" Properties=species:S:1:pos:R:3:momenta:R:3:forces:R:3 EPS_SCF=1e-06 energy=-1400.381060775068 units=gap_units Integrated_spin_density=6.55109e-05 opt_dir=/home/tks32/dft_pbe/apr_8_opt_fragments_subset/singlepoint_1_CO2 time=125.0 free_energy=-1400.381060775068 pbc="T T T"
C       -0.01563281      -0.33234632       0.02205160      -0.21417287      -0.86916255      -1.97027898       0.35188661      -0.15832849      -0.11986269