9
Lattice="13.0 0.0 0.0 0.0 9.0 0.0 0.0 0.0 9.0" Properties=species:S:1:pos:R:3:momenta:R:3:forces:R:3 EPS_SCF=1e-06 energy=-1399.2838944730054 units=gap_units Integrated_spin_density=6.55109e-05 opt_dir=/home/tks32/dft_pbe/apr_8_opt_fragments_subset/singlepoint_1_CO2 time=120.0 free_energy=-1399.2838944730054 pbc="T T T"
C       -0.05910847      -0.37520265       0.07317412      -1.04483857      -2.09095829      -2.16520251      -3.30407690       1.46285718      -0.98078709
O       -1.26126878      -0.18199598      -0.12615013       0.18723067       2.42685954       1.59591276       4.97172727      -1.32333902       0.91069973
O        1.18142794      -0.42719358       0.03741463       0.81003470      -0.84416162      -0.16149578       1.25168680       0.60050298       0.40550118
C        4.26870204       1.15164808       0.06898907       0.58962277       0.51737602       0.03886353      -1.48033564      -3.76255153      -0.54464562
C        4.13551872      -0.23182172      -0.08312735      -1.35488703      -0.41278702       0.62616971      -1.18709566       4.89547432       0.89548312
H        3.38631891       1.75672812      -0.23905669       0.27122080       0.56457866      -0.04315666      -0.24792147      -0.30018537      -0.09895851
H        4.99080254       1.88253813       0.45275907       0.54314591      -0.39729557      -0.20961197       0.67105575      -0.72799551       0.12857265
H        1.60474738       0.27354949       0.68873344       0.27929688       0.28666383       0.03373108      -0.25795850      -0.18271254      -0.40799805
H        3.17312112      -0.73330343      -0.19747558      -0.28082613      -0.05027555       0.28478984      -0.41708164      -0.66205050      -0.30786741
9
Lattice="13.0 0.0 0.0 0.0 9.0 0.0 0.0 0.0 9.0" Properties=species:S:1:pos:R:3:momenta:R:3:forces:R:3 EPS_SCF=1e-06 energy=-1399.559452807339 units=gap_units Integrated_spin_density=6.55109e-05 opt_dir=/home/tks32/dft_pbe/apr_8_opt_fragments_subset/singlepoint_1_CO2 time=120.0 free_energy=-1399.559452807339 pbc="T T T"
C       -0.09214924      -0.36057408       0.06336625      -1.04483857      -2.09095829      -2.16520251       6.10073482       0.09140136       0.15537804
O       -1.21155151      -0.19522937      -0.11704313       0.18723067       2.42685954       1.59591276      -2.36904296      -0.18753009      -0.27550511
O        1.19394481      -0.42118855       0.04146964       0.81003470      -0.84416162      -0.16149578      -1.04850062       0.70991268       0.31018994
C        4.25389868       1.11402256       0.06354261       0.58962277       0.51737602       0.03886353      -0.36428727       0.87584870       0.23519202
C        4.12364776      -0.18286698      -0.07417252      -1.35488703      -0.41278702       0.62616971      -2.42007967       0.95026612       0.37711340
H        3.38383970       1.75372627      -0.24004628       0.27122080       0.56457866      -0.04315666      -0.17024988      -0.51469462      -0.10432880
H        4.99751310       1.87525817       0.45404480       0.54314591      -0.39729557      -0.20961197       0.00290681      -1.55630359      -0.24604768
H        1.60216780       0.27172236       0.68465346       0.27929688       0.28666383       0.03373108      -0.25032851       0.01746107      -0.19954662
H        3.16895030      -0.73992393      -0.20055425      -0.28082613      -0.05027555       0.28478984       0.51884730      -0.38636162      -0.25244519
9
Lattice="13.0 0.0 0.0 0.0 9.0 0.0 0.0 0.0 9.0" Properties=species:S:1:pos:R:3:momenta:R:3:forces:R:3 EPS_SCF=1e-06 energy=-1399.669525910895 units=gap_units Integrated_spin_density=6.55109e-05 opt_dir=/home/tks32/dft_pbe/apr_8_opt_fragments_subset/singlepoint_1_CO2 time=120.0 free_energy=-1399.669525910895 pbc="T T T"
C       -0.07689740      -0.36034557       0.06375469      -1.04483857      -2.09095829      -2.16520251       3.25246375       0.39033800      -0.15689923
O       -1.21747411      -0.19569820      -0.11773190       0.18723067       2.42685954       1.59591276      -0.38571046      -0.47073172       0.04074475
O        1.19132356      -0.41941377       0.04224512       0.81003470      -0.84416162      -0.16149578      -0.29670239       0.56119755       0.18913165
C        4.25298797       1.11621219       0.06413059       0.58962277       0.51737602       0.03886353      -0.43053226       0.70316530       0.19786322
C        4.11759756      -0.18049131      -0.07322974      -1.35488703      -0.41278702       0.62616971      -2.28411707       1.02487856       0.40258780
H        3.38341407       1.75243953      -0.24030710       0.27122080       0.56457866      -0.04315666      -0.18493138      -0.44172451      -0.10949103
H        4.99752036       1.87136742       0.45342968       0.54314591      -0.39729557      -0.20961197       0.05508783      -1.46919896      -0.21012955
H        1.60154197       0.27176602       0.68415459       0.27929688       0.28666383       0.03373108      -0.13195687       0.15313649      -0.08419494
H        3.17024742      -0.74088984      -0.20118537      -0.28082613      -0.05027555       0.28478984       0.40639884      -0.45106071      -0.26961266
9
Lattice="13.0 0.0 0.0 0.0 9.0 0.0 0.0 0.0 9.0" Properties=species:S:1:pos:R:3:momenta:R:3:forces:R:3 EPS_SCF=1e-06 energy=-1399.7442852225386 units=gap_units Integrated_spin_density=6.55109e-05 opt_dir=/home/tks32/dft_pbe/apr_8_opt_fragments_subset/singlepoint_1_CO2 time=120.0 free_energy=-1399.7442852225386 pbc="T T T"
C       -0.05373302      -0.35900727       0.06364902      -1.04483857      -2.09095829      -2.16520251      -0.85357663       0.72441838      -0.52009550
O       -1.22392368      -0.19748607      -0.11823355       0.18723067       2.42685954       1.59591276       2.05708434      -0.78946323       0.41163207
O        1.18810348      -0.41618803       0.04349185       0.81003470      -0.84416162      -0.16149578       1.12993986       0.31957941      -0.01383285
C        4.25091904       1.12022323       0.06523392       0.58962277       0.51737602       0.03886353      -0.54981139       0.37443767       0.12830180
C        4.10552452      -0.17537930      -0.07121303      -1.35488703      -0.41278702       0.62616971      -1.99240806       1.16845653       0.44881282
H        3.38249439       1.74999971      -0.24085955       0.27122080       0.56457866      -0.04315666      -0.21789480      -0.30207613      -0.12155670
H        4.99768675       1.86360253       0.45226633       0.54314591      -0.39729557      -0.20961197       0.15559997      -1.30531864      -0.14217485
H        1.60059583       0.27224966       0.68346130       0.27929688       0.28666383       0.03373108       0.07946576       0.37994441       0.10956994
H        3.17259408      -0.74306800      -0.20253571      -0.28082613      -0.05027555       0.28478984       0.19160094      -0.56997841      -0.30065671
9
Lattice="13.0 0.0 0.0 0.0 9.0 0.0 0.0 0.0 9.0" Properties=species:S:1:pos:R:3:momenta:R:3:forces:R:3 EPS_SCF=1e-06 energy=-1399.782803329157 units=gap_units Integrated_spin_density=6.55109e-05 opt_dir=/home/tks32/dft_pbe/apr_8_opt_fragments_subset/singlepoint_1_CO2 time=120.0 free_energy=-1399.782803329157 pbc="T T T"
C       -0.03564558      -0.35546000       0.06187190      -1.04483857      -2.09095829      -2.16520251      -3.43276398       0.80548085      -0.66861404
O       -1.22307559      -0.20164831      -0.11735381       0.18723067       2.42685954       1.59591276       3.22632238      -0.89729103       0.56541506
O        1.18885969      -0.41225133       0.04456918       0.81003470      -0.84416162      -0.16149578       2.25378915       0.13797667      -0.19173733
C        4.24727889       1.12504412       0.06664185       0.58962277       0.51737602       0.03886353      -0.68352728      -0.05741272       0.04221280
C        4.08821525      -0.16699966      -0.06794652      -1.35488703      -0.41278702       0.62616971      -1.57139228       1.35493848       0.50261911
H        3.38096200       1.74682694      -0.24174988       0.27122080       0.56457866      -0.04315666      -0.27348984      -0.11878563      -0.14155875
H        4.99833972       1.85239268       0.45075952       0.54314591      -0.39729557      -0.20961197       0.28417888      -1.10009780      -0.05679257
H        1.60000130       0.27391370       0.68319170       0.27929688       0.28666383       0.03373108       0.26804937       0.58621720       0.28577076
H        3.17532572      -0.74687169      -0.20472335      -0.28082613      -0.05027555       0.28478984      -0.07116639      -0.71102601      -0.33731505
9
Lattice="13.0 0.0 0.0 0.0 9.0 0.0 0.0 0.0 9.0" Properties=species:S:1:pos:R:3:momenta:R:3:forces:R:3 EPS_SCF=1e-06 energy=-1399.895929218496 units=gap_units Integrated_spin_density=6.55109e-05 opt_dir=/home/tks32/dft_pbe/apr_8_opt_fragments_subset/singlepoint_1_CO2 time=120.0 free_energy=-1399.895929218496 pbc="T T T"
C       -0.02970342      -0.34984203       0.05825920      -1.04483857      -2.09095829      -2.16520251      -2.96823988       0.58968249      -0.56078365
O       -1.21259740      -0.20809620      -0.11485949       0.18723067       2.42685954       1.59591276       2.69291480      -0.77468539       0.46034606
O        1.19632676      -0.40829283       0.04496142       0.81003470      -0.84416162      -0.16149578       2.09509047       0.13269285      -0.26503444
C        4.24194455       1.12921005       0.06803609       0.58962277       0.51737602       0.03886353      -0.78830865      -0.52587307      -0.03774918
C        4.06790522      -0.15537807      -0.06349320      -1.35488703      -0.41278702       0.62616971      -1.12902732       1.55061043       0.54765386
H        3.37875932       1.74361377      -0.24297742       0.27122080       0.56457866      -0.04315666      -0.34612626       0.07518158      -0.16734341
H        4.99978310       1.83899126       0.44923239       0.54314591      -0.39729557      -0.20961197       0.40208857      -0.90903563       0.02180070
H        1.60027336       0.27717652       0.68380955       0.27929688       0.28666383       0.03373108       0.32535011       0.68459552       0.36799039
H        3.17756991      -0.75243600      -0.20770794      -0.28082613      -0.05027555       0.28478984      -0.28374184      -0.82316878      -0.36688034
9
Lattice="13.0 0.0 0.0 0.0 9.0 0.0 0.0 0.0 9.0" Properties=species:S:1:pos:R:3:momenta:R:3:forces:R:3 EPS_SCF=1e-06 energy=-1400.0431983732317 units=gap_units Integrated_spin_density=6.55109e-05 opt_dir=/home/tks32/dft_pbe/apr_8_opt_fragments_subset/singlepoint_1_CO2 time=120.0 free_energy=-1400.0431983732317 pbc="T T T"
C       -0.03364976      -0.34293943       0.05325182      -1.04483857      -2.09095829      -2.16520251       0.12963384       0.16497371      -0.23638773
O       -1.19473485      -0.21632504      -0.11117315       0.18723067       2.42685954       1.59591276       0.66411257      -0.49438013       0.14906668
O        1.20960736      -0.40431469       0.04448455       0.81003470      -0.84416162      -0.16149578       0.87423520       0.29605381      -0.24008270
C        4.23467526       1.13131274       0.06917270       0.58962277       0.51737602       0.03886353      -0.83520651      -0.96382666      -0.08940729
C        4.04609093      -0.14006329      -0.05777038      -1.35488703      -0.41278702       0.62616971      -0.77884487       1.69238832       0.56495414
H        3.37569311       1.74095733      -0.24460621       0.27122080       0.56457866      -0.04315666      -0.41910426       0.26387613      -0.19576767
H        5.00234117       1.82408357       0.44792622       0.54314591      -0.39729557      -0.20961197       0.46732770      -0.77669864       0.07129770
H        1.60153696       0.28225669       0.68551788       0.27929688       0.28666383       0.03373108       0.24771885       0.66865376       0.35050152
H        3.17870121      -0.76002143      -0.21154285      -0.28082613      -0.05027555       0.28478984      -0.34987252      -0.85104030      -0.37417465
9
Lattice="13.0 0.0 0.0 0.0 9.0 0.0 0.0 0.0 9.0" Properties=species:S:1:pos:R:3:momenta:R:3:forces:R:3 EPS_SCF=1e-06 energy=-1400.1311233737465 units=gap_units Integrated_spin_density=6.55109e-05 opt_dir=/home/tks32/dft_pbe/apr_8_opt_fragments_subset/singlepoint_1_CO2 time=120.0 free_energy=-1400.1311233737465 pbc="T T T"
C       -0.03670057      -0.33608962       0.04783177      -1.04483857      -2.09095829      -2.16520251       3.37123424      -0.24436889       0.11655942
O       -1.17609244      -0.22564126      -0.10727945       0.18723067       2.42685954       1.59591276      -1.59961276      -0.23284807      -0.17637766
O        1.22493793      -0.39959041       0.04312769       0.81003470      -0.84416162      -0.16149578      -0.29411742       0.51985409      -0.17092285
C        4.22490568       1.12948095       0.06985019       0.58962277       0.51737602       0.03886353      -0.72264397      -0.78627764      -0.04348032
C        4.02344863      -0.11974063      -0.05043687      -1.35488703      -0.41278702       0.62616971      -0.67042127       1.18162662       0.48003098
H        3.37131411       1.73958614      -0.24682856       0.27122080       0.56457866      -0.04315666      -0.45578470       0.44006675      -0.22041164
H        5.00644918       1.80766550       0.44702617       0.54314591      -0.39729557      -0.20961197       0.43045541      -0.73922268       0.06947484
H        1.60363138       0.28941251       0.68840971       0.27929688       0.28666383       0.03373108       0.11359189       0.59278182       0.28459712
H        3.17836748      -0.77013672      -0.21644008      -0.28082613      -0.05027555       0.28478984      -0.17270141      -0.73161200      -0.33946989
9
Lattice="13.0 0.0 0.0 0.0 9.0 0.0 0.0 0.0 9.0" Properties=species:S:1:pos:R:3:momenta:R:3:forces:R:3 EPS_SCF=1e-06 energy=-1400.2115552858913 units=gap_units Integrated_spin_density=6.55109e-05 opt_dir=/home/tks32/dft_pbe/apr_8_opt_fragments_subset/singlepoint_1_CO2 time=120.0 free_energy=-1400.2115552858913 pbc="T T T"
C       -0.02734318      -0.33080211       0.04337220      -1.04483857      -2.09095829      -2.16520251       3.77769334      -0.38359199       0.20317600
O       -1.16505706      -0.23486181      -0.10440834       0.18723067       2.42685954       1.59591276      -1.99958846      -0.18557984      -0.23530500
O        1.23767953      -0.39347223       0.04129289       0.81003470      -0.84416162      -0.16149578      -0.62119916       0.66731014      -0.12768102
C        4.21351868       1.12500952       0.07030383       0.58962277       0.51737602       0.03886353      -0.40250862       0.55716229       0.12569014
C        4.00066366      -0.09720807      -0.04211334      -1.35488703      -0.41278702       0.62616971      -0.80905569      -0.53557475       0.25370237
H        3.36573669       1.73993196      -0.24961998       0.27122080       0.56457866      -0.04315666      -0.45084660       0.59236302      -0.23298877
H        5.01169178       1.79023534       0.44646555       0.54314591      -0.39729557      -0.20961197       0.32046094      -0.75356324       0.03349421
H        1.60592417       0.29798091       0.69203410       0.27929688       0.28666383       0.03373108       0.02014881       0.54126050       0.24794596
H        3.17744710      -0.78186705      -0.22206633      -0.28082613      -0.05027555       0.28478984       0.16489544      -0.49978615      -0.26803390
9
Lattice="13.0 0.0 0.0 0.0 9.0 0.0 0.0 0.0 9.0" Properties=species:S:1:pos:R:3:momenta:R:3:forces:R:3 EPS_SCF=1e-06 energy=-1400.2971332834816 units=gap_units Integrated_spin_density=6.55109e-05 opt_dir=/home/tks32/dft_pbe/apr_8_opt_fragments_subset/singlepoint_1_CO2 time=120.0 free_energy=-1400.2971332834816 pbc="T T T"
C       -0.00236680      -0.32716295       0.03980229      -1.04483857      -2.09095829      -2.16520251       0.73707187      -0.28584910      -0.00525061
O       -1.16244892      -0.24476204      -0.10254465       0.18723067       2.42685954       1.59591276      -0.06561501      -0.31808613      -0.00648835
O        1.24770996      -0.38463969       0.03894537       0.81003470      -0.84416162      -0.16149578       0.00424212       0.69175923      -0.13539812
C        4.20057140       1.12290021       0.07127571       0.58962277       0.51737602       0.03886353      -0.02877466       2.29300813       0.29602692
C        3.97474145      -0.07712844      -0.03281782      -1.35488703      -0.41278702       0.62616971      -0.91522475      -2.65687416      -0.00310797
H        3.35833984       1.74273814      -0.25335255       0.27122080       0.56457866      -0.04315666      -0.40265985       0.73202165      -0.22677998
H        5.01821484       1.76984519       0.44604984       0.54314591      -0.39729557      -0.20961197       0.21417983      -0.72532947       0.00417850
H        1.60827784       0.30871488       0.69665352       0.27929688       0.28666383       0.03373108      -0.00052435       0.54502533       0.26560516
H        3.17722178      -0.79555884      -0.22875114      -0.28082613      -0.05027555       0.28478984       0.45730480      -0.27567548      -0.18878556
9
Lattice="13.0 0.0 0.0 0.0 9.0 0.0 0.0 0.0 9.0" Properties=species:S:1:pos:R:3:momenta:R:3:forces:R:3 EPS_SCF=1e-06 energy=-1400.3559985322095 units=gap_units Integrated_spin_density=6.55109e-05 opt_dir=/home/tks32/dft_pbe/apr_8_opt_fragments_subset/singlepoint_1_CO2 time=120.0 free_energy=-1400.3559985322095 pbc="T T T"
C        0.02620122      -0.32503529       0.03623698      -1.04483857      -2.09095829      -2.16520251      -2.72429757      -0.18274910      -0.21279740
O       -1.16020351      -0.25622008      -0.10073111       0.18723067       2.42685954       1.59591276       2.06114984      -0.41861343       0.21205849
O        1.25767307      -0.37230629       0.03591814       0.81003470      -0.84416162      -0.16149578       0.97376866       0.63681619      -0.15194729
C        4.18759046       1.13267468       0.07377072       0.58962277       0.51737602       0.03886353      -0.27497765       1.23115599       0.14480119
C        3.94431417      -0.07097534      -0.02362111      -1.35488703      -0.41278702       0.62616971      -0.32058946      -1.80965170       0.06065559
H        3.34892528       1.74930715      -0.25822536       0.27122080       0.56457866      -0.04315666      -0.32342520       0.84869392      -0.19594942
H        5.02578811       1.74588334       0.44565946       0.54314591      -0.39729557      -0.20961197       0.24980151      -0.53706880       0.04350298
H        1.61060784       0.32217352       0.70260618       0.27929688       0.28666383       0.03373108       0.01459235       0.55870654       0.28227283
H        3.17936476      -0.81055523      -0.23635332      -0.28082613      -0.05027555       0.28478984       0.34397752      -0.32728962      -0.18259697
9
Lattice="13.0 0.0 0.0 0.0 9.0 0.0 0.0 0.0 9.0" Properties=species:S:1:pos:R:3:momenta:R:3:forces:R:3 EPS_SCF=1e-06 energy=-1400.434920176544 units=gap_units Integrated_spin_density=6.55109e-05 opt_dir=/home/tks32/dft_pbe/apr_8_opt_fragments_subset/singlepoint_1_CO2 time=120.0 free_energy=-1400.434920176544 pbc="T T T"
C        0.03842702      -0.32400553       0.03144045      -1.04483857      -2.09095829      -2.16520251      -2.20936262      -0.25121681      -0.12167009
O       -1.14578028      -0.27006545      -0.09767704       0.18723067       2.42685954       1.59591276       1.75095940      -0.37011939       0.14560758
O        1.27331993      -0.35630133       0.03201551       0.81003470      -0.84416162      -0.16149578       0.48931379       0.70017271      -0.06442088
C        4.17308392       1.14965728       0.07710300       0.58962277       0.51737602       0.03886353      -0.83856904      -1.09218956      -0.11756166
C        3.91222770      -0.07557761      -0.01413735      -1.35488703      -0.41278702       0.62616971       0.77650563       0.58839196       0.27885011
H        3.33767063       1.76084637      -0.26421950       0.27122080       0.56457866      -0.04315666      -0.20323293       0.89347938      -0.14460017
H        5.03478024       1.71893094       0.44552952       0.54314591      -0.39729557      -0.20961197       0.33630161      -0.32080752       0.09603680
H        1.61300599       0.33883278       0.71018250       0.27929688       0.28666383       0.03373108      -0.08811369       0.44538605       0.17452713
H        3.18352623      -0.82737099      -0.24497650      -0.28082613      -0.05027555       0.28478984      -0.01380216      -0.59309681      -0.24676882
9
Lattice="13.0 0.0 0.0 0.0 9.0 0.0 0.0 0.0 9.0" Properties=species:S:1:pos:R:3:momenta:R:3:forces:R:3 EPS_SCF=1e-06 energy=-1400.4913259548355 units=gap_units Integrated_spin_density=6.55109e-05 opt_dir=/home/tks32/dft_pbe/apr_8_opt_fragments_subset/singlepoint_1_CO2 time=120.0 free_energy=-1400.4913259548355 pbc="T T T"
C        0.03440731      -0.32482055       0.02578610      -1.04483857      -2.09095829      -2.16520251       2.24613405      -0.33998666       0.23845612
O       -1.11864452      -0.28652532      -0.09357829       0.18723067       2.42685954       1.59591276      -1.19447942      -0.25922247      -0.17210942
O        1.29244116      -0.33528182       0.02766787       0.81003470      -0.84416162      -0.16149578      -1.16371740       0.84523748       0.09129461
C        4.15254028       1.15853533       0.07955278       0.58962277       0.51737602       0.03886353      -0.83445383      -1.59684868      -0.12095748
C        3.88603801      -0.07584435      -0.00267744      -1.35488703      -0.41278702       0.62616971       1.12198821       1.20246707       0.24553957
H        3.32500494       1.77884440      -0.27123115       0.27122080       0.56457866      -0.04315666      -0.01380596       0.80044632      -0.07226016
H        5.04617214       1.68981306       0.44610304       0.54314591      -0.39729557      -0.20961197       0.13502950      -0.31922861       0.01647449
H        1.61474337       0.35863822       0.71898461       0.27929688       0.28666383       0.03373108      -0.30183084       0.22903890      -0.01389160
H        3.18755872      -0.84841250      -0.25534693      -0.28082613      -0.05027555       0.28478984       0.00513569      -0.56190335      -0.21254613
9
Lattice="13.0 0.0 0.0 0.0 9.0 0.0 0.0 0.0 9.0" Properties=species:S:1:pos:R:3:momenta:R:3:forces:R:3 EPS_SCF=1e-06 energy=-1400.5105246240214 units=gap_units Integrated_spin_density=6.55109e-05 opt_dir=/home/tks32/dft_pbe/apr_8_opt_fragments_subset/singlepoint_1_CO2 time=120.0 free_energy=-1400.5105246240214 pbc="T T T"
C        0.03741655      -0.32527604       0.02610557      -1.04483857      -2.09095829      -2.16520251       1.52158396      -0.31606804       0.18806655
O       -1.12024482      -0.28687262      -0.09380887       0.18723067       2.42685954       1.59591276      -0.75578134      -0.27706292      -0.12567154
O        1.29088208      -0.33414942       0.02779018       0.81003470      -0.84416162      -0.16149578      -0.88521548       0.81013524       0.05571761
C        4.15142233       1.15639596       0.07939073       0.58962277       0.51737602       0.03886353      -0.75047682      -1.34822383      -0.09084351
C        3.88754119      -0.07423336      -0.00234848      -1.35488703      -0.41278702       0.62616971       0.97138699       0.92303927       0.19927902
H        3.32498645       1.77991679      -0.27132796       0.27122080       0.56457866      -0.04315666      -0.00095039       0.77574806      -0.06589232
H        5.04635304       1.68938537       0.44612511       0.54314591      -0.39729557      -0.20961197       0.08588586      -0.34616762      -0.00237915
H        1.61433899       0.35894507       0.71896599       0.27929688       0.28666383       0.03373108      -0.27466922       0.26373139       0.02493215
H        3.18756560      -0.84916530      -0.25563169      -0.28082613      -0.05027555       0.28478984       0.08823644      -0.48513155      -0.18320881
9
Lattice="13.0 0.0 0.0 0.0 9.0 0.0 0.0 0.0 9.0" Properties=species:S:1:pos:R:3:momenta:R:3:forces:R:3 EPS_SCF=1e-06 energy=-1400.5333140027262 units=gap_units Integrated_spin_density=6.55109e-05 opt_dir=/home/tks32/dft_pbe/apr_8_opt_fragments_subset/singlepoint_1_CO2 time=120.0 free_energy=-1400.5333140027262 pbc="T T T"
C        0.04242299      -0.32616336       0.02667714      -1.04483857      -2.09095829      -2.16520251       0.30680135      -0.27530502       0.10597464
O       -1.12282658      -0.28760364      -0.09420621       0.18723067       2.42685954       1.59591276      -0.05224589      -0.30699876      -0.05062170
O        1.28814191      -0.33190667       0.02798441       0.81003470      -0.84416162      -0.16149578      -0.38367298       0.74856925      -0.00776527
C        4.14928268       1.15243424       0.07910767       0.58962277       0.51737602       0.03886353      -0.58423334      -0.81713560      -0.03220323
C        3.89036118      -0.07138935      -0.00175144      -1.35488703      -0.41278702       0.62616971       0.68425130       0.34221940       0.11095464
H        3.32496837       1.78205360      -0.27151461       0.27122080       0.56457866      -0.04315666       0.02370441       0.72765328      -0.05365775
H        5.04664558       1.68847762       0.44614138       0.54314591      -0.39729557      -0.20961197      -0.00242840      -0.39461035      -0.03595191
H        1.61356021       0.35961957       0.71898690       0.27929688       0.28666383       0.03373108      -0.22665210       0.32469882       0.09417462
H        3.18770506      -0.85057555      -0.25616468      -0.28082613      -0.05027555       0.28478984       0.23447565      -0.34909103      -0.13090403
9
Lattice="13.0 0.0 0.0 0.0 9.0 0.0 0.0 0.0 9.0" Properties=species:S:1:pos:R:3:momenta:R:3:forces:R:3 EPS_SCF=1e-06 energy=-1400.5441980494754 units=gap_units Integrated_spin_density=6.55109e-05 opt_dir=/home/tks32/dft_pbe/apr_8_opt_fragments_subset/singlepoint_1_CO2 time=120.0 free_energy=-1400.5441980494754 pbc="T T T"
C        0.04749373      -0.32746888       0.02738669      -1.04483857      -2.09095829      -2.16520251      -0.94440107      -0.22824595       0.02442924
O       -1.12524637      -0.28882686      -0.09465702       0.18723067       2.42685954       1.59591276       0.61924419      -0.33956950       0.02283514
O        1.28496929      -0.32850982       0.02814492       0.81003470      -0.84416162      -0.16149578       0.19490699       0.67575179      -0.08440153
C        4.14628122       1.14736405       0.07879363       0.58962277       0.51737602       0.03886353      -0.35629514      -0.02287586       0.04642529
C        3.89415913      -0.06819959      -0.00100979      -1.35488703      -0.41278702       0.62616971       0.30660176      -0.49621361      -0.00544009
H        3.32499574       1.78531659      -0.27178139       0.27122080       0.56457866      -0.04315666       0.05795683       0.65797165      -0.03648516
H        5.04690438       1.68693403       0.44608983       0.54314591      -0.39729557      -0.20961197      -0.11047745      -0.45338609      -0.07617072
H        1.61244195       0.36082450       0.71917913       0.27929688       0.28666383       0.03373108      -0.17120378       0.39525464       0.17701420
H        3.18826233      -0.85248757      -0.25688541      -0.28082613      -0.05027555       0.28478984       0.40366768      -0.18868707      -0.06820637
9
Lattice="13.0 0.0 0.0 0.0 9.0 0.0 0.0 0.0 9.0" Properties=species:S:1:pos:R:3:momenta:R:3:forces:R:3 EPS_SCF=1e-06 energy=-1400.5464998397085 units=gap_units Integrated_spin_density=6.55109e-05 opt_dir=/home/tks32/dft_pbe/apr_8_opt_fragments_subset/singlepoint_1_CO2 time=120.0 free_energy=-1400.5464998397085 pbc="T T T"
C        0.05020000      -0.32909275       0.02807333      -1.04483857      -2.09095829      -2.16520251      -1.64595723      -0.18533179      -0.02056036
O       -1.12620629      -0.29059559      -0.09501784       0.18723067       2.42685954       1.59591276       0.94036114      -0.36402932       0.06191694
O        1.28249726      -0.32412362       0.02812339       0.81003470      -0.84416162      -0.16149578       0.59529393       0.61124970      -0.15125082
C        4.14287917       1.14275589       0.07860230       0.58962277       0.51737602       0.03886353      -0.14614316       0.75904961       0.11660558
C        3.89818028      -0.06630473      -0.00035301      -1.35488703      -0.41278702       0.62616971      -0.03456092      -1.28267489      -0.11027275
H        3.32513436       1.78954734      -0.27209326       0.27122080       0.56457866      -0.04315666       0.09456192       0.57560737      -0.01737279
H        5.04692003       1.68465310       0.44589362       0.54314591      -0.39729557      -0.20961197      -0.20450013      -0.50213972      -0.10946127
H        1.61109881       0.36268630       0.71970027       0.27929688       0.28666383       0.03373108      -0.12868569       0.45062966       0.24684797
H        3.18955777      -0.85457948      -0.25766821      -0.28082613      -0.05027555       0.28478984       0.52963013      -0.06236063      -0.01645250
9
Lattice="13.0 0.0 0.0 0.0 9.0 0.0 0.0 0.0 9.0" Properties=species:S:1:pos:R:3:momenta:R:3:forces:R:3 EPS_SCF=1e-06 energy=-1400.549097850472 units=gap_units Integrated_spin_density=6.55109e-05 opt_dir=/home/tks32/dft_pbe/apr_8_opt_fragments_subset/singlepoint_1_CO2 time=120.0 free_energy=-1400.549097850472 pbc="T T T"
C        0.04964871      -0.32915482       0.02806644      -1.04483857      -2.09095829      -2.16520251      -1.51436492      -0.18541837      -0.01257556
O       -1.12589133      -0.29071752      -0.09499710       0.18723067       2.42685954       1.59591276       0.86569640      -0.36227770       0.05446157