9
Lattice="13.0 0.0 0.0 0.0 9.0 0.0 0.0 0.0 9.0" Properties=species:S:1:pos:R:3:momenta:R:3:forces:R:3 EPS_SCF=1e-06 energy=-1399.2743984945091 units=gap_units Integrated_spin_density=6.55109e-05 opt_dir=/home/tks32/dft_pbe/apr_8_opt_fragments_subset/singlepoint_1_CO2 time=15.0 free_energy=-1399.2743984945091 pbc="T T T"
C        0.40642855       0.01853945      -0.01514935       2.33654373       0.26232335       0.26478954      -0.74061269      -1.83347168      -0.34819459
O        0.34975253      -1.16586042      -0.33198693       4.37224069      -1.20824535      -0.51552897      -1.92409165       4.60654336       1.45927913
O        0.59058603       1.17864108       0.35155425       3.98169156       0.97857440       0.26384214      -1.76323058      -3.21843614      -1.03760499
C        3.79242266       0.33545725       0.21967864      -4.62233648      -0.34141760      -0.36976342       5.33369636       1.40612765       1.43204789
C        2.76012606      -0.42440122      -0.23406611      -3.89431749      -0.19636519      -0.11834027       1.27678315       0.40329388       0.01944102
H        3.80467385       1.32362432       0.76458371      -0.28084633       0.34124138      -0.06065118      -1.09697839      -0.05173890      -0.20397201
H        4.94569037       0.09701614       0.38386676      -0.53069754       0.07464971       0.27919389      -1.53990089      -0.95043526      -0.81126884
H        1.98445692       0.21689015       0.02172083      -0.68416416       0.40985338       0.27520441      -0.23764988       0.61563852       0.48210985
H        2.74459097      -1.00146812      -1.12879315      -0.67811398      -0.32061408      -0.01874615       0.69198457      -0.97752142      -0.99183746
9
Lattice="13.0 0.0 0.0 0.0 9.0 0.0 0.0 0.0 9.0" Properties=species:S:1:pos:R:3:momenta:R:3:forces:R:3 EPS_SCF=1e-06 energy=-1399.8378093814522 units=gap_units Integrated_spin_density=6.55109e-05 opt_dir=/home/tks32/dft_pbe/apr_8_opt_fragments_subset/singlepoint_1_CO2 time=15.0 free_energy=-1399.8378093814522 pbc="T T T"
C        0.39902242       0.00020473      -0.01863130       2.33654373       0.26232335       0.26478954      -0.88556307       1.98539048       0.65672820
O        0.33051161      -1.11979499      -0.31739414       4.37224069      -1.20824535      -0.51552897      -2.30094227      -1.13134813      -0.16693193
O        0.57295372       1.14645672       0.34117820       3.98169156       0.97857440       0.26384214      -1.26789930      -1.48228171      -0.50959301
C        3.84575962       0.34951853       0.23399912      -4.62233648      -0.34141760      -0.36976342       1.56902873      -0.28386302       0.09927681
C        2.77289389      -0.42036828      -0.23387170      -3.89431749      -0.19636519      -0.11834027       2.52882900       1.93736187       0.72894900
H        3.79370407       1.32310693       0.76254399      -0.28084633       0.34124138      -0.06065118      -0.75656150       0.23425660      -0.01787305
H        4.93029136       0.08751179       0.37575407      -0.53069754       0.07464971       0.27919389      -0.23210911      -0.92266401      -0.55007644
H        1.98208042       0.22304654       0.02654193      -0.68416416       0.40985338       0.27520441       0.62409653       0.34530944       0.33168306
H        2.75151082      -1.01124333      -1.13871152      -0.67811398      -0.32061408      -0.01874615       0.72112099      -0.68216152      -0.57216265
9
Lattice="13.0 0.0 0.0 0.0 9.0 0.0 0.0 0.0 9.0" Properties=species:S:1:pos:R:3:momenta:R:3:forces:R:3 EPS_SCF=1e-06 energy=-1400.0243386360728 units=gap_units Integrated_spin_density=6.55109e-05 opt_dir=/home/tks32/dft_pbe/apr_8_opt_fragments_subset/singlepoint_1_CO2 time=15.0 free_energy=-1400.0243386360728 pbc="T T T"
C        0.38204992       0.00681128      -0.01412144       2.33654373       0.26232335       0.26478954      -1.65736148      -0.19763850      -0.10108677
O        0.28641432      -1.09150376      -0.30620353       4.37224069      -1.20824535      -0.51552897      -2.16524289      -4.04134525      -1.07372964
O        0.54232768       1.10023864       0.32590865       3.98169156       0.97857440       0.26384214      -0.25150001       3.57802958       1.05095149
C        3.91202468       0.35886982       0.24804302      -4.62233648      -0.34141760      -0.36976342      -2.39587655      -0.31746842      -0.62488572
C        2.81381777      -0.39418985      -0.22521256      -3.89431749      -0.19636519      -0.11834027       2.10000325       1.86620393       0.01005471
H        3.77502571       1.32536777       0.76050022      -0.28084633       0.34124138      -0.06065118      -0.15265636       0.17409059       0.00752488
H        4.91373075       0.06821906       0.36205036      -0.53069754       0.07464971       0.27919389       2.32017508      -1.18277402      -0.12632284
H        1.98720538       0.23260631       0.03474135      -0.68416416       0.40985338       0.27520441       1.43462256       0.01053816       0.20858483
H        2.76613174      -1.02798065      -1.15429741      -0.67811398      -0.32061408      -0.01874615       0.76783638       0.11036393       0.64890906
9
Lattice="13.0 0.0 0.0 0.0 9.0 0.0 0.0 0.0 9.0" Properties=species:S:1:pos:R:3:momenta:R:3:forces:R:3 EPS_SCF=1e-06 energy=-1400.159280268292 units=gap_units Integrated_spin_density=6.55109e-05 opt_dir=/home/tks32/dft_pbe/apr_8_opt_fragments_subset/singlepoint_1_CO2 time=15.0 free_energy=-1400.159280268292 pbc="T T T"
C        0.37790651       0.00631718      -0.01437416       2.33654373       0.26232335       0.26478954      -1.51038942      -0.26718123      -0.08118238
O        0.28100121      -1.10160712      -0.30888786       4.37224069      -1.20824535      -0.51552897      -1.99879521      -2.78372586      -0.73663430
O        0.54169893       1.10918372       0.32853602       3.98169156       0.97857440       0.26384214      -0.41359216       2.42624980       0.69786476
C        3.90603499       0.35807615       0.24648081      -4.62233648      -0.34141760      -0.36976342      -1.10883134       0.08534030      -0.23028027
C        2.81906777      -0.38952434      -0.22518742      -3.89431749      -0.19636519      -0.11834027       1.30221222       1.29311291      -0.38772482
H        3.77464406       1.32580300       0.76051903      -0.28084633       0.34124138      -0.06065118      -0.17927386       0.17142279       0.00494455
H        4.91953119       0.06526213       0.36173455      -0.53069754       0.07464971       0.27919389       1.88223914      -1.06277585      -0.18442447
H        1.99079194       0.23263265       0.03526281      -0.68416416       0.40985338       0.27520441       1.24486031       0.01061421       0.22451864
H        2.76805133      -1.02770474      -1.15267514      -0.67811398      -0.32061408      -0.01874615       0.78157033       0.12694293       0.69291830
9
Lattice="13.0 0.0 0.0 0.0 9.0 0.0 0.0 0.0 9.0" Properties=species:S:1:pos:R:3:momenta:R:3:forces:R:3 EPS_SCF=1e-06 energy=-1400.2983627262515 units=gap_units Integrated_spin_density=6.55109e-05 opt_dir=/home/tks32/dft_pbe/apr_8_opt_fragments_subset/singlepoint_1_CO2 time=15.0 free_energy=-1400.2983627262515 pbc="T T T"
C        0.36988329       0.00511288      -0.01483241       2.33654373       0.26232335       0.26478954      -1.25811644      -0.25310407      -0.01649675
O        0.27044668      -1.11861451      -0.31339806       4.37224069      -1.20824535      -0.51552897      -1.72942192      -0.89556526      -0.23438988
O        0.53995718       1.12413230       0.33288475       3.98169156       0.97857440       0.26384214      -0.66238953       0.58449721       0.13601840
C        3.89749177       0.35760447       0.24442011      -4.62233648      -0.34141760      -0.36976342       0.78973245       0.62934065       0.33316197
C        2.82749507      -0.38164895      -0.22626713      -3.89431749      -0.19636519      -0.11834027       0.18272681       0.46685149      -0.94018749
H        3.77379090       1.32668207       0.76055002      -0.28084633       0.34124138      -0.06065118      -0.20859547       0.17867420       0.00962311
H        4.93010294       0.05957933       0.36092599      -0.53069754       0.07464971       0.27919389       1.17950969      -0.85985557      -0.26849119
H        1.99755907       0.23268654       0.03637045      -0.68416416       0.40985338       0.27520441       0.91404580       0.01620211       0.25048363
H        2.77200103      -1.02709551      -1.14924507      -0.67811398      -0.32061408      -0.01874615       0.79250859       0.13295924       0.73027820
9
Lattice="13.0 0.0 0.0 0.0 9.0 0.0 0.0 0.0 9.0" Properties=species:S:1:pos:R:3:momenta:R:3:forces:R:3 EPS_SCF=1e-06 energy=-1400.3663119523108 units=gap_units Integrated_spin_density=6.55109e-05 opt_dir=/home/tks32/dft_pbe/apr_8_opt_fragments_subset/singlepoint_1_CO2 time=15.0 free_energy=-1400.3663119523108 pbc="T T T"
C        0.35832219       0.00315586      -0.01530175       2.33654373       0.26232335       0.26478954      -1.00196010      -0.18471888       0.05961184
O        0.25498151      -1.13701064      -0.31826583       4.37224069      -1.20824535      -0.51552897      -1.42607259       0.93899863       0.24515896
O        0.53610451       1.13960241       0.33726783       3.98169156       0.97857440       0.26384214      -0.91819735      -1.24441103      -0.41886225
C        3.89252727       0.35935104       0.24371481      -4.62233648      -0.34141760      -0.36976342       2.12001489       0.78308725       0.63746399
C        2.83571001      -0.37295058      -0.23048229      -3.89431749      -0.19636519      -0.11834027      -0.39723716       0.00308742      -1.18029949
H        3.77230344       1.32808962       0.76061111      -0.28084633       0.34124138      -0.06065118      -0.20073738       0.21787504       0.03774590
H        4.94368655       0.05149851       0.35927206      -0.53069754       0.07464971       0.27919389       0.51253185      -0.62869295      -0.32901075
H        2.00680274       0.23279094       0.03823144      -0.68416416       0.40985338       0.27520441       0.53320239       0.03675218       0.27809122
H        2.77828973      -1.02608853      -1.14363873      -0.67811398      -0.32061408      -0.01874615       0.77845544       0.07802233       0.67010059
9
Lattice="13.0 0.0 0.0 0.0 9.0 0.0 0.0 0.0 9.0" Properties=species:S:1:pos:R:3:momenta:R:3:forces:R:3 EPS_SCF=1e-06 energy=-1400.4127679569167 units=gap_units Integrated_spin_density=6.55109e-05 opt_dir=/home/tks32/dft_pbe/apr_8_opt_fragments_subset/singlepoint_1_CO2 time=15.0 free_energy=-1400.4127679569167 pbc="T T T"
C        0.34440211       0.00074650      -0.01551502       2.33654373       0.26232335       0.26478954      -0.84023788      -0.09245150       0.11597539
O        0.23605988      -1.15027294      -0.32178675       4.37224069      -1.20824535      -0.51552897      -1.15033786       2.10880558       0.53764940
O        0.52941589       1.14915984       0.33974315       3.98169156       0.97857440       0.26384214      -1.08030862      -2.43734910      -0.77634937
C        3.89549668       0.36367019       0.24531640      -4.62233648      -0.34141760      -0.36976342       2.53677774       0.52309300       0.60089069
C        2.84170986      -0.36511122      -0.23841668      -3.89431749      -0.19636519      -0.11834027      -0.35369287       0.01380833      -1.00132797
H        3.77026050       1.33012077       0.76079851      -0.28084633       0.34124138      -0.06065118      -0.13030882       0.27856844       0.08524972
H        4.95770986       0.04202019       0.35662928      -0.53069754       0.07464971       0.27919389       0.07311697      -0.40647377      -0.33739349
H        2.01699262       0.23301382       0.04088193      -0.68416416       0.40985338       0.27520441       0.21407874       0.07444957       0.30187578
H        2.78668054      -1.02490852      -1.13624216      -0.67811398      -0.32061408      -0.01874615       0.73091260      -0.06245055       0.47342986
9
Lattice="13.0 0.0 0.0 0.0 9.0 0.0 0.0 0.0 9.0" Properties=species:S:1:pos:R:3:momenta:R:3:forces:R:3 EPS_SCF=1e-06 energy=-1400.498452383238 units=gap_units Integrated_spin_density=6.55109e-05 opt_dir=/home/tks32/dft_pbe/apr_8_opt_fragments_subset/singlepoint_1_CO2 time=15.0 free_energy=-1400.498452383238 pbc="T T T"
C        0.32908339      -0.00172897      -0.01532179       2.33654373       0.26232335       0.26478954      -0.79891953       0.01878026       0.14639135
O        0.21520986      -1.15520514      -0.32316991       4.37224069      -1.20824535      -0.51552897      -0.90469898       2.44356679       0.59998069
O        0.51980814       1.14966648       0.33939248       3.98169156       0.97857440       0.26384214      -1.10742642      -2.82011295      -0.88547264
C        3.90659443       0.36929475       0.24875355      -4.62233648      -0.34141760      -0.36976342       2.08938950      -0.03056728       0.28272875
C        2.84593502      -0.35800993      -0.24888330      -3.89431749      -0.19636519      -0.11834027       0.17244373       0.42284932      -0.47802559
H        3.76798907       1.33287400       0.76125030      -0.28084633       0.34124138      -0.06065118      -0.00344899       0.32642920       0.13107354
H        4.97057368       0.03213970       0.35313020      -0.53069754       0.07464971       0.27919389      -0.11189566      -0.21597331      -0.30000071
H        2.02687453       0.23346169       0.04426997      -0.68416416       0.40985338       0.27520441       0.00848551       0.12404566       0.32171435
H        2.79665982      -1.02405393      -1.12801287      -0.67811398      -0.32061408      -0.01874615       0.65607084      -0.26901769       0.18161028
9
Lattice="13.0 0.0 0.0 0.0 9.0 0.0 0.0 0.0 9.0" Properties=species:S:1:pos:R:3:momenta:R:3:forces:R:3 EPS_SCF=1e-06 energy=-1400.6237751329268 units=gap_units Integrated_spin_density=6.55109e-05 opt_dir=/home/tks32/dft_pbe/apr_8_opt_fragments_subset/singlepoint_1_CO2 time=15.0 free_energy=-1400.6237751329268 pbc="T T T"
C        0.31262004      -0.00389398      -0.01465744       2.33654373       0.26232335       0.26478954      -0.86365451       0.10975076       0.14194647
O        0.19341395      -1.15145779      -0.32240473       4.37224069      -1.20824535      -0.51552897      -0.75631610       1.93836149       0.42934284
O        0.50745111       1.14067463       0.33611041       3.98169156       0.97857440       0.26384214      -0.99618483      -2.37186707      -0.74296566
C        3.92358220       0.37425445       0.25279416      -4.62233648      -0.34141760      -0.36976342       1.05236703      -0.66761351      -0.19008974
C        2.85031537      -0.35020216      -0.25990471      -3.89431749      -0.19636519      -0.11834027       0.99679243       1.06029945       0.21424163
H        3.76593322       1.33644549       0.76209603      -0.28084633       0.34124138      -0.06065118       0.16426592       0.31243960       0.14586664
H        4.98177625       0.02252371       0.34897599      -0.53069754       0.07464971       0.27919389      -0.07875479      -0.07971833      -0.23734547
H        2.03579668       0.23428034       0.04839701      -0.68416416       0.40985338       0.27520441      -0.08270469       0.17739332       0.34035490
H        2.80783911      -1.02418606      -1.11999808      -0.67811398      -0.32061408      -0.01874615       0.56418954      -0.47904571      -0.10135161
9
Lattice="13.0 0.0 0.0 0.0 9.0 0.0 0.0 0.0 9.0" Properties=species:S:1:pos:R:3:momenta:R:3:forces:R:3 EPS_SCF=1e-06 energy=-1400.7550086321617 units=gap_units Integrated_spin_density=6.55109e-05 opt_dir=/home/tks32/dft_pbe/apr_8_opt_fragments_subset/singlepoint_1_CO2 time=15.0 free_energy=-1400.7550086321617 pbc="T T T"
C        0.29469235      -0.00544719      -0.01354827       2.33654373       0.26232335       0.26478954      -1.00978811       0.06445566       0.07561248
O        0.17107357      -1.14110367      -0.32016968       4.37224069      -1.20824535      -0.51552897      -0.69997053       0.76473722       0.07240237
O        0.49274179       1.12403909       0.33048057       3.98169156       0.97857440       0.26384214      -0.83898244      -1.12265464      -0.36409821
C        3.94266154       0.37631360       0.25574606      -4.62233648      -0.34141760      -0.36976342       0.14521912      -0.97552145      -0.50540246
C        2.85784789      -0.33935623      -0.26905234      -3.89431749      -0.19636519      -0.11834027       1.57151343       1.45654805       0.65864313
H        3.76467461       1.34078516       0.76338257      -0.28084633       0.34124138      -0.06065118       0.36324931       0.17869067       0.09831294
H        4.99157491       0.01358219       0.34438233      -0.53069754       0.07464971       0.27919389       0.08852791      -0.00369384      -0.17329060
H        2.04352873       0.23565605       0.05333722      -0.68416416       0.40985338       0.27520441      -0.08644566       0.22224482       0.36082923
H        2.81993255      -1.02603037      -1.11314981      -0.67811398      -0.32061408      -0.01874615       0.46667697      -0.58480650      -0.22300889
9
Lattice="13.0 0.0 0.0 0.0 9.0 0.0 0.0 0.0 9.0" Properties=species:S:1:pos:R:3:momenta:R:3:forces:R:3 EPS_SCF=1e-06 energy=-1400.8708015220168 units=gap_units Integrated_spin_density=6.55109e-05 opt_dir=/home/tks32/dft_pbe/apr_8_opt_fragments_subset/singlepoint_1_CO2 time=15.0 free_energy=-1400.8708015220168 pbc="T T T"
C        0.27221747      -0.00668318      -0.01209627       2.33654373       0.26232335       0.26478954      -1.20904723      -0.17765083      -0.06212543
O        0.14568027      -1.12727363      -0.31761808       4.37224069      -1.20824535      -0.51552897      -0.68900250      -0.86858757      -0.41616967
O        0.47425255       1.10231514       0.32320280       3.98169156       0.97857440       0.26384214      -0.59933648       0.79347078       0.21194380
C        3.96222982       0.37378607       0.25630282      -4.62233648      -0.34141760      -0.36976342       0.06850535      -0.48490355      -0.28876427
C        2.87266081      -0.32180115      -0.27502561      -3.89431749      -0.19636519      -0.11834027       1.19821317       1.05992110       0.38484466
H        3.76512883       1.34591783       0.76511641      -0.28084633       0.34124138      -0.06065118       0.58275347      -0.12504339      -0.03547343
H        5.00168996       0.00471280       0.33902350      -0.53069754       0.07464971       0.27919389       0.30757059       0.02890914      -0.12291082
H        2.05077883       0.23805826       0.05991694      -0.68416416       0.40985338       0.27520441      -0.02802750       0.24666137       0.38190236
H        2.83408940      -1.03059352      -1.10741386      -0.67811398      -0.32061408      -0.01874615       0.36837113      -0.47277705      -0.05324721
9
Lattice="13.0 0.0 0.0 0.0 9.0 0.0 0.0 0.0 9.0" Properties=species:S:1:pos:R:3:momenta:R:3:forces:R:3 EPS_SCF=1e-06 energy=-1400.9542752284194 units=gap_units Integrated_spin_density=6.55109e-05 opt_dir=/home/tks32/dft_pbe/apr_8_opt_fragments_subset/singlepoint_1_CO2 time=15.0 free_energy=-1400.9542752284194 pbc="T T T"
C        0.24266053      -0.00897815      -0.01103138       2.33654373       0.26232335       0.26478954      -1.31869814      -0.28300669      -0.14320168
O        0.11636312      -1.11879816      -0.31759579       4.37224069      -1.20824535      -0.51552897      -0.65651803      -2.11840639      -0.79924169
O        0.45231808       1.08556360       0.31726634       3.98169156       0.97857440       0.26384214      -0.49006341       2.22551326       0.64447683
C        3.98203655       0.36836048       0.25511540      -4.62233648      -0.34141760      -0.36976342       0.70416975       0.46285045       0.29826352
C        2.89455871      -0.29801842      -0.27862779      -3.89431749      -0.19636519      -0.11834027       0.10408728       0.07649586      -0.42230170
H        3.76908892       1.35025169       0.76662116      -0.28084633       0.34124138      -0.06065118       0.78239323      -0.47696248      -0.19431998
H        5.01356747      -0.00390353       0.33297208      -0.53069754       0.07464971       0.27919389       0.50785200       0.04742527      -0.08877893
H        2.05779560       0.24192473       0.06873830      -0.68416416       0.40985338       0.27520441       0.06475078       0.23203000       0.38183430
H        2.85033896      -1.03796359      -1.10204967      -0.67811398      -0.32061408      -0.01874615       0.30202652      -0.16593929       0.32326933
9
Lattice="13.0 0.0 0.0 0.0 9.0 0.0 0.0 0.0 9.0" Properties=species:S:1:pos:R:3:momenta:R:3:forces:R:3 EPS_SCF=1e-06 energy=-1401.0890371564196 units=gap_units Integrated_spin_density=6.55109e-05 opt_dir=/home/tks32/dft_pbe/apr_8_opt_fragments_subset/singlepoint_1_CO2 time=15.0 free_energy=-1401.0890371564196 pbc="T T T"
C        0.20498055      -0.01304804      -0.01088199       2.33654373       0.26232335       0.26478954      -1.18603491       0.04157342      -0.06443227
O        0.08311594      -1.12380894      -0.32263684       4.37224069      -1.20824535      -0.51552897      -0.53712651      -1.97574963      -0.77765220
O        0.42745040       1.08304146       0.31545900       3.98169156       0.97857440       0.26384214      -0.80418757       1.90900882       0.57704637
C        4.00614946       0.36590940       0.25582675      -4.62233648      -0.34141760      -0.36976342       0.85349884       0.87393836       0.52990024
C        2.91694496      -0.27393686      -0.28487712      -3.89431749      -0.19636519      -0.11834027      -0.43980490      -0.51243192      -0.84888347
H        3.77797452       1.35153014       0.76688315      -0.28084633       0.34124138      -0.06065118       0.90465043      -0.65855187      -0.26735815
H        5.02856944      -0.01215213       0.32640550      -0.53069754       0.07464971       0.27919389       0.72248262       0.07037769      -0.04695004
H        2.06516776       0.24723090       0.07990966      -0.68416416       0.40985338       0.27520441       0.17551978       0.17555354       0.33215055
H        2.86837491      -1.04632731      -1.09467947      -0.67811398      -0.32061408      -0.01874615       0.31100223       0.07628161       0.56617898
9
Lattice="13.0 0.0 0.0 0.0 9.0 0.0 0.0 0.0 9.0" Properties=species:S:1:pos:R:3:momenta:R:3:forces:R:3 EPS_SCF=1e-06 energy=-1401.2903989569602 units=gap_units Integrated_spin_density=6.55109e-05 opt_dir=/home/tks32/dft_pbe/apr_8_opt_fragments_subset/singlepoint_1_CO2 time=15.0 free_energy=-1401.2903989569602 pbc="T T T"
C        0.15876402      -0.01678241      -0.01121114       2.33654373       0.26232335       0.26478954      -0.79948183       0.27415560       0.00556913
O        0.04611172      -1.14342916      -0.33340748       4.37224069      -1.20824535      -0.51552897      -0.30039753      -0.17305615      -0.25635457
O        0.39678995       1.09468485       0.31794057       3.98169156       0.97857440       0.26384214      -1.49545054       0.06540515       0.06608684
C        4.03642569       0.36995198       0.26046064      -4.62233648      -0.34141760      -0.36976342       0.10442887       0.35198356       0.09155729
C        2.93592090      -0.25381530      -0.29737583      -3.89431749      -0.19636519      -0.11834027       0.05923257      -0.31506946      -0.49640393
H        3.79350507       1.34791916       0.76516186      -0.28084633       0.34124138      -0.06065118       0.88934749      -0.53556192      -0.18835775
H        5.04882504      -0.01982358       0.31953518      -0.53069754       0.07464971       0.27919389       0.91973756       0.11811161       0.01205527
H        2.07379114       0.25380245       0.09346753      -0.68416416       0.40985338       0.27520441       0.31622982       0.07064503       0.20942757
H        2.88859442      -1.05406936      -1.08316268      -0.67811398      -0.32061408      -0.01874615       0.30635358       0.14338658       0.55642014
9
Lattice="13.0 0.0 0.0 0.0 9.0 0.0 0.0 0.0 9.0" Properties=species:S:1:pos:R:3:momenta:R:3:forces:R:3 EPS_SCF=1e-06 energy=-1401.4513735067392 units=gap_units Integrated_spin_density=6.55109e-05 opt_dir=/home/tks32/dft_pbe/apr_8_opt_fragments_subset/singlepoint_1_CO2 time=15.0 free_energy=-1401.4513735067392 pbc="T T T"
C        0.10446493      -0.01763419      -0.01148030       2.33654373       0.26232335       0.26478954      -0.31870195      -0.08082931      -0.10051861
O        0.00618182      -1.16474446      -0.34679274       4.37224069      -1.20824535      -0.51552897      -0.02209849       1.85472322       0.35090865
O        0.35069481       1.10694492       0.32109786       3.98169156       0.97857440       0.26384214      -2.16929684      -1.37928867      -0.32959640
C        4.06762034       0.37764541       0.26602388      -4.62233648      -0.34141760      -0.36976342      -0.74345146      -0.89668845      -0.77888880
C        2.95540754      -0.23709620      -0.31498482      -3.89431749      -0.19636519      -0.11834027       1.05571303       0.39206032       0.41234042
H        3.81822998       1.33873885       0.76148438      -0.28084633       0.34124138      -0.06065118       0.67436185      -0.11387046       0.03297472
H        5.07856543      -0.02621881       0.31282960      -0.53069754       0.07464971       0.27919389       0.81318770       0.26417420       0.05632754
H        2.08566623       0.26107411       0.10913443      -0.68416416       0.40985338       0.27520441       0.49966451      -0.08319513      -0.00724277
H        2.91189686      -1.06027099      -1.06590365      -0.67811398      -0.32061408      -0.01874615       0.21062165       0.04291428       0.36369525
9
Lattice="13.0 0.0 0.0 0.0 9.0 0.0 0.0 0.0 9.0" Properties=species:S:1:pos:R:3:momenta:R:3:forces:R:3 EPS_SCF=1e-06 energy=-1401.6813319092767 units=gap_units Integrated_spin_density=6.55109e-05 opt_dir=/home/tks32/dft_pbe/apr_8_opt_fragments_subset/singlepoint_1_CO2 time=15.0 free_energy=-1401.6813319092767 pbc="T T T"
C        0.04696717      -0.01935676      -0.01283601       2.33654373       0.26232335       0.26478954       0.42173495      -0.06837317      -0.09619731
O       -0.03380319      -1.16589004      -0.35631884       4.37224069      -1.20824535      -0.51552897       0.00211333       1.74985310       0.33899591
O        0.28133639       1.10422208       0.32067376       3.98169156       0.97857440       0.26384214      -2.41093527      -1.15667472      -0.24193454
C        4.09062572       0.37559957       0.26313250      -4.62233648      -0.34141760      -0.36976342       0.26539151      -0.99370647      -0.53415027
C        2.98622911      -0.21621136      -0.32805038      -3.89431749      -0.19636519      -0.11834027       0.23541279      -0.04816033       0.31041503
H        3.85013875       1.32836856       0.75818070      -0.28084633       0.34124138      -0.06065118       0.53166203       0.11322112       0.14652256
H        5.11696891      -0.02972573       0.30676449      -0.53069754       0.07464971       0.27919389       0.28783761       0.46429332       0.02402394
H        2.10289387       0.26741193       0.12465075      -0.68416416       0.40985338       0.27520441       0.60812508      -0.16440496      -0.26427639
H        2.93737121      -1.06597962      -1.04478831      -0.67811398      -0.32061408      -0.01874615       0.05865797       0.10395211       0.31660107
9
Lattice="13.0 0.0 0.0 0.0 9.0 0.0 0.0 0.0 9.0" Properties=species:S:1:pos:R:3:momenta:R:3:forces:R:3 EPS_SCF=1e-06 energy=-1401.9285980966215 units=gap_units Integrated_spin_density=6.55109e-05 opt_dir=/home/tks32/dft_pbe/apr_8_opt_fragments_subset/singlepoint_1_CO2 time=15.0 free_energy=-1401.9285980966215 pbc="T T T"
C       -0.00479202      -0.02197034      -0.01544912       2.33654373       0.26232335       0.26478954       0.55716741       0.15800691      -0.03390438
O       -0.07361801      -1.14407117      -0.36136293       4.37224069      -1.20824535      -0.51552897      -0.12551382      -0.64815139      -0.36816814
O        0.18059044       1.08633185       0.31707667       3.98169156       0.97857440       0.26384214      -1.56099623       0.84251537       0.39693079
C        4.11703143       0.36052230       0.25324266      -4.62233648      -0.34141760      -0.36976342       1.21728714      -0.04429649       0.30527704
C        3.02002979      -0.19603285      -0.33699634      -3.89431749      -0.19636519      -0.11834027      -0.80000663      -0.79364614      -0.05153145
H        3.88890994       1.31952082       0.75681136      -0.28084633       0.34124138      -0.06065118       0.51954216      -0.12687949       0.00648393
H        5.15901237      -0.02712800       0.30103621      -0.53069754       0.07464971       0.27919389      -0.04509523       0.44673532      -0.07441700
H        2.12803953       0.27156996       0.13664413      -0.68416416       0.40985338       0.27520441       0.37117637      -0.04809219      -0.45492937
H        2.96352447      -1.07030393      -1.01959399      -0.67811398      -0.32061408      -0.01874615      -0.13356117       0.21380809       0.27425858
9
Lattice="13.0 0.0 0.0 0.0 9.0 0.0 0.0 0.0 9.0" Properties=species:S:1:pos:R:3:momenta:R:3:forces:R:3 EPS_SCF=1e-06 energy=-1402.0406891160962 units=gap_units Integrated_spin_density=6.55109e-05 opt_dir=/home/tks32/dft_pbe/apr_8_opt_fragments_subset/singlepoint_1_CO2 time=15.0 free_energy=-1402.0406891160962 pbc="T T T"
C       -0.04693594      -0.02188762      -0.01863278       2.33654373       0.26232335       0.26478954       0.24587163      -0.10661152      -0.12469343
O       -0.11546879      -1.13334070      -0.37266147       4.37224069      -1.20824535      -0.51552897       0.09344206      -1.52407394      -0.62007062