9
Lattice="13.0 0.0 0.0 0.0 9.0 0.0 0.0 0.0 9.0" Properties=species:S:1:pos:R:3:momenta:R:3:forces:R:3 EPS_SCF=1e-06 energy=-1399.34133297145 units=gap_units Integrated_spin_density=6.55109e-05 opt_dir=/home/tks32/dft_pbe/apr_8_opt_fragments_subset/singlepoint_1_CO2 time=80.0 free_energy=-1399.34133297145 pbc="T T T"
C        0.19836453      -0.21628090      -0.02625214      -1.36672954       0.29250451       1.18231179       2.91150292       1.05003966       0.52641047
O       -0.77725731      -0.81386249      -0.13634930      -2.33104910       2.24147585      -0.23481948      -2.61656544      -1.71234270      -0.79141115
O        1.29577948       0.39535972       0.23152501       0.64134512      -4.72294985      -1.30746574      -2.73598979      -0.55969487      -0.09769812
C        3.68927516       0.76460134       0.25656555       0.15158964       0.05431986      -1.15807019      -1.26811261       5.18824390       0.83510698
C        3.75828347      -0.22107932      -0.43153148       1.75264757       0.90581415       1.76786937       1.23423152      -4.25406130      -1.02710969
H        3.10524941       1.57108995      -0.36540179      -0.02391389       0.62477612      -0.16047811       0.79714824      -0.19006780       0.95340259
H        3.73738896       1.02563472       1.34666465       0.69790974       0.32458330      -0.29454857       0.63676673      -0.02286948      -0.08260655
H        0.71622234       1.24018834       0.47566691       0.18112917      -0.03781994       0.23061306       1.94468772       0.27671221       0.07267997
H        4.43020754      -1.09372570      -0.56991182       0.29707128       0.31729599      -0.02541212      -0.90366930       0.22404037      -0.38877450
9
Lattice="13.0 0.0 0.0 0.0 9.0 0.0 0.0 0.0 9.0" Properties=species:S:1:pos:R:3:momenta:R:3:forces:R:3 EPS_SCF=1e-06 energy=-1399.4317167537486 units=gap_units Integrated_spin_density=6.55109e-05 opt_dir=/home/tks32/dft_pbe/apr_8_opt_fragments_subset/singlepoint_1_CO2 time=80.0 free_energy=-1399.4317167537486 pbc="T T T"
C        0.22747956      -0.20578050      -0.02098804      -1.36672954       0.29250451       1.18231179      -4.91529356      -3.49001247      -0.69635459
O       -0.80342296      -0.83098592      -0.14426341      -2.33104910       2.24147585      -0.23481948       2.24568932       1.20305846      -0.24672051
O        1.26841958       0.38976277       0.23054803       0.64134512      -4.72294985      -1.30746574       1.36156079       0.06535043       0.26144867
C        3.67659403       0.81648378       0.26491662       0.15158964       0.05431986      -1.15807019      -0.28503108      -0.85874670      -2.59286227
C        3.77062579      -0.26361993      -0.44180258       1.75264757       0.90581415       1.76786937      -0.74986846       2.57134054       2.49334003
H        3.11322089       1.56918927      -0.35586776      -0.02391389       0.62477612      -0.16047811       0.38449354       0.31379326       0.59247243
H        3.74375663       1.02540603       1.34583858       0.69790974       0.32458330      -0.29454857       0.53795394       0.12059960       0.28911130
H        0.73566922       1.24295546       0.47639371       0.18112917      -0.03781994       0.23061306       1.15337728       1.26996338       0.37729020
H        4.42117085      -1.09148530      -0.57379957       0.29707128       0.31729599      -0.02541212       0.26711823      -1.19534650      -0.47772525
9
Lattice="13.0 0.0 0.0 0.0 9.0 0.0 0.0 0.0 9.0" Properties=species:S:1:pos:R:3:momenta:R:3:forces:R:3 EPS_SCF=1e-06 energy=-1399.5771078711207 units=gap_units Integrated_spin_density=6.55109e-05 opt_dir=/home/tks32/dft_pbe/apr_8_opt_fragments_subset/singlepoint_1_CO2 time=80.0 free_energy=-1399.5771078711207 pbc="T T T"
C        0.21519133      -0.21450553      -0.02272892      -1.36672954       0.29250451       1.18231179      -2.35901224      -1.89953009      -0.23032248
O       -0.79780874      -0.82797827      -0.14488021      -2.33104910       2.24147585      -0.23481948       0.76813882       0.32177987      -0.42114223
O        1.27182348       0.38992615       0.23120165       0.64134512      -4.72294985      -1.30746574       0.09124148      -0.29692207       0.09603819
C        3.67588146       0.81433691       0.25843446       0.15158964       0.05431986      -1.15807019      -0.19669890      -0.83503172      -2.18950539
C        3.76875111      -0.25719158      -0.43556923       1.75264757       0.90581415       1.76786937      -0.44395874       2.17915700       2.35499245
H        3.11418213       1.56997376      -0.35438658      -0.02391389       0.62477612      -0.16047811       0.32751329       0.40449610       0.50052878
H        3.74510151       1.02570752       1.34656136       0.69790974       0.32458330      -0.29454857       0.50649531       0.08132411       0.03670981
H        0.73855266       1.24613037       0.47733694       0.18112917      -0.03781994       0.23061306       1.27795633       0.92491718       0.27550262
H        4.42183864      -1.09447366      -0.57499388       0.29707128       0.31729599      -0.02541212       0.02832466      -0.88019037      -0.42280174
9
Lattice="13.0 0.0 0.0 0.0 9.0 0.0 0.0 0.0 9.0" Properties=species:S:1:pos:R:3:momenta:R:3:forces:R:3 EPS_SCF=1e-06 energy=-1399.6781757211868 units=gap_units Integrated_spin_density=6.55109e-05 opt_dir=/home/tks32/dft_pbe/apr_8_opt_fragments_subset/singlepoint_1_CO2 time=80.0 free_energy=-1399.6781757211868 pbc="T T T"
C        0.19732848      -0.22783634      -0.02495997      -1.36672954       0.29250451       1.18231179       1.27102193       0.37576580       0.40848297
O       -0.79054061      -0.82434337      -0.14664992      -2.33104910       2.24147585      -0.23481948      -1.58340297      -1.07463110      -0.70406686
O        1.27515014       0.38921686       0.23206689       0.64134512      -4.72294985      -1.30746574      -1.37845006      -0.67397230      -0.06892806
C        3.67467285       0.80999649       0.24628595       0.15158964       0.05431986      -1.15807019      -0.13124989       0.01486296      -0.96705242
C        3.76578353      -0.24512134      -0.42316737       1.75264757       0.90581415       1.76786937       0.12734338       0.68032377       1.57679130
H        3.11599179       1.57184636      -0.35160999      -0.02391389       0.62477612      -0.16047811       0.22176293       0.56506055       0.33831351
H        3.74777265       1.02621341       1.34731773       0.69790974       0.32458330      -0.29454857       0.42556756       0.01017663      -0.40018314
H        0.74483341       1.25165527       0.47898039       0.18112917      -0.03781994       0.23061306       1.43339886       0.43138331       0.12991980
H        4.42252135      -1.09970168      -0.57728813       0.29707128       0.31729599      -0.02541212      -0.38599174      -0.32896962      -0.31327710
9
Lattice="13.0 0.0 0.0 0.0 9.0 0.0 0.0 0.0 9.0" Properties=species:S:1:pos:R:3:momenta:R:3:forces:R:3 EPS_SCF=1e-06 energy=-1399.6699435276535 units=gap_units Integrated_spin_density=6.55109e-05 opt_dir=/home/tks32/dft_pbe/apr_8_opt_fragments_subset/singlepoint_1_CO2 time=80.0 free_energy=-1399.6699435276535 pbc="T T T"
C        0.18553159      -0.23856882      -0.02559251      -1.36672954       0.29250451       1.18231179       3.25040854       1.68550142       0.78738142
O       -0.78933079      -0.82469036      -0.15061332      -2.33104910       2.24147585      -0.23481948      -2.94115550      -1.87182541      -0.88108326
O        1.27350273       0.38630916       0.23261351       0.64134512      -4.72294985      -1.30746574      -1.96377570      -0.82991639      -0.11924693
C        3.67314318       0.80614015       0.23209612       0.15158964       0.05431986      -1.15807019      -0.18333745       2.20509178       1.11671941
C        3.76354147      -0.23196740      -0.40669648       1.75264757       0.90581415       1.76786937       0.76345665      -2.19650066      -0.07960393
H        3.11836719       1.57543433      -0.34797191      -0.02391389       0.62477612      -0.16047811       0.09399898       0.74761157       0.14959458
H        3.75160961       1.02670298       1.34665101       0.69790974       0.32458330      -0.29454857       0.30598154      -0.05722358      -0.83072591
H        0.75531249       1.25808019       0.48089696       0.18112917      -0.03781994       0.23061306       1.47632976       0.08523742       0.02854883
H        4.42183611      -1.10551457      -0.58040779       0.29707128       0.31729599      -0.02541212      -0.80190680       0.23202385      -0.17158423
9
Lattice="13.0 0.0 0.0 0.0 9.0 0.0 0.0 0.0 9.0" Properties=species:S:1:pos:R:3:momenta:R:3:forces:R:3 EPS_SCF=1e-06 energy=-1399.6975520269077 units=gap_units Integrated_spin_density=6.55109e-05 opt_dir=/home/tks32/dft_pbe/apr_8_opt_fragments_subset/singlepoint_1_CO2 time=80.0 free_energy=-1399.6975520269077 pbc="T T T"
C        0.18756310      -0.23751538      -0.02510040      -1.36672954       0.29250451       1.18231179       2.68847361       1.35498572       0.70106122
O       -0.79116901      -0.82586025      -0.15116399      -2.33104910       2.24147585      -0.23481948      -2.52228332      -1.62233843      -0.82881569
O        1.27227537       0.38579046       0.23253898       0.64134512      -4.72294985      -1.30746574      -1.77576928      -0.79878095      -0.10260214
C        3.67302859       0.80751833       0.23279407       0.15158964       0.05431986      -1.15807019      -0.15787010       1.92203753       0.92057985
C        3.76401863      -0.23334021      -0.40674623       1.75264757       0.90581415       1.76786937       0.68448440      -1.86964095       0.08960213
H        3.11842594       1.57590159      -0.34787841      -0.02391389       0.62477612      -0.16047811       0.09470170       0.74330011       0.14970973
H        3.75180084       1.02666721       1.34613181       0.69790974       0.32458330      -0.29454857       0.30941837      -0.04554058      -0.79488626
H        0.75623520       1.25813346       0.48091480       0.18112917      -0.03781994       0.23061306       1.44577426       0.13134654       0.04220901
H        4.42133491      -1.10536955      -0.58051503       0.29707128       0.31729599      -0.02541212      -0.76692964       0.18463102      -0.17685785
9
Lattice="13.0 0.0 0.0 0.0 9.0 0.0 0.0 0.0 9.0" Properties=species:S:1:pos:R:3:momenta:R:3:forces:R:3 EPS_SCF=1e-06 energy=-1399.7389294839911 units=gap_units Integrated_spin_density=6.55109e-05 opt_dir=/home/tks32/dft_pbe/apr_8_opt_fragments_subset/singlepoint_1_CO2 time=80.0 free_energy=-1399.7389294839911 pbc="T T T"
C        0.19126542      -0.23562281      -0.02416883      -1.36672954       0.29250451       1.18231179       1.67710657       0.76148459       0.54194317
O       -0.79458154      -0.82804398      -0.15223732      -2.33104910       2.24147585      -0.23481948      -1.79207941      -1.18734357      -0.73650773
O        1.26993297       0.38476685       0.23240039       0.64134512      -4.72294985      -1.30746574      -1.40951765      -0.73250261      -0.06776589
C        3.67281542       0.81009843       0.23406390       0.15158964       0.05431986      -1.15807019      -0.11328432       1.42897540       0.57656818
C        3.76492519      -0.23587895      -0.40672855       1.75264757       0.90581415       1.76786937       0.53910655      -1.29420597       0.38186487
H        3.11854482       1.57684023      -0.34768991      -0.02391389       0.62477612      -0.16047811       0.09623845       0.73475886       0.14974753
H        3.75218864       1.02660328       1.34511046       0.69790974       0.32458330      -0.29454857       0.31528980      -0.02351719      -0.72678680
H        0.75807339       1.25827296       0.48096028       0.18112917      -0.03781994       0.23061306       1.38833621       0.21656912       0.06750140
H        4.42034926      -1.10511034      -0.58073482       0.29707128       0.31729599      -0.02541212      -0.70119620       0.09578136      -0.18656472
9
Lattice="13.0 0.0 0.0 0.0 9.0 0.0 0.0 0.0 9.0" Properties=species:S:1:pos:R:3:momenta:R:3:forces:R:3 EPS_SCF=1e-06 energy=-1399.7752777487594 units=gap_units Integrated_spin_density=6.55109e-05 opt_dir=/home/tks32/dft_pbe/apr_8_opt_fragments_subset/singlepoint_1_CO2 time=80.0 free_energy=-1399.7752777487594 pbc="T T T"
C        0.19594995      -0.23330543      -0.02289339      -1.36672954       0.29250451       1.18231179       0.36543592      -0.00544307       0.32944058
O       -0.79909796      -0.83096683      -0.15379724      -2.33104910       2.24147585      -0.23481948      -0.88007359      -0.64343881      -0.61846906
O        1.26668816       0.38325491       0.23222100       0.64134512      -4.72294985      -1.30746574      -0.89391975      -0.62891487      -0.01414812
C        3.67253222       0.81357285       0.23567170       0.15158964       0.05431986      -1.15807019      -0.05975774       0.84256771       0.16229070
C        3.76617583      -0.23920748      -0.40640470       1.75264757       0.90581415       1.76786937       0.34944553      -0.59685359       0.72343008
H        3.11872943       1.57827752      -0.34739951      -0.02391389       0.62477612      -0.16047811       0.09899566       0.72207688       0.14932398
H        3.75279190       1.02652678       1.34360515       0.69790974       0.32458330      -0.29454857       0.32166235       0.00651008      -0.63313669
H        0.76084734       1.25857315       0.48105565       0.18112917      -0.03781994       0.23061306       1.31109309       0.32666748       0.10027569
H        4.41889672      -1.10479982      -0.58108308       0.29707128       0.31729599      -0.02541212      -0.61288148      -0.02317181      -0.19900715
9
Lattice="13.0 0.0 0.0 0.0 9.0 0.0 0.0 0.0 9.0" Properties=species:S:1:pos:R:3:momenta:R:3:forces:R:3 EPS_SCF=1e-06 energy=-1399.7946848373438 units=gap_units Integrated_spin_density=6.55109e-05 opt_dir=/home/tks32/dft_pbe/apr_8_opt_fragments_subset/singlepoint_1_CO2 time=80.0 free_energy=-1399.7946848373438 pbc="T T T"
C        0.20053282      -0.23122525      -0.02141483      -1.36672954       0.29250451       1.18231179      -1.00379754      -0.79968646       0.10040259
O       -0.80404610      -0.83424323      -0.15582194      -2.33104910       2.24147585      -0.23481948       0.02809184      -0.10030800      -0.49664334
O        1.26287058       0.38126290       0.23204536       0.64134512      -4.72294985      -1.30746574      -0.30086990      -0.49938991       0.05281702
C        3.67221735       0.81754555       0.23728162       0.15158964       0.05431986      -1.15807019      -0.00786917       0.28672476      -0.23809822
C        3.76765216      -0.24280223      -0.40538711       1.75264757       0.90581415       1.76786937       0.14444213       0.08363812       1.03564876
H        3.11899494       1.58029585      -0.34698826      -0.02391389       0.62477612      -0.16047811       0.10391885       0.70528781       0.14777208
H        3.75365770       1.02646446       1.34161489       0.69790974       0.32458330      -0.29454857       0.32547463       0.04145404      -0.52391911
H        0.76465986       1.25917121       0.48124213       0.18112917      -0.03781994       0.23061306       1.22501146       0.43748398       0.13344297
H        4.41697427      -1.10454360      -0.58159627       0.29707128       0.31729599      -0.02541212      -0.51440230      -0.15520433      -0.21142275
9
Lattice="13.0 0.0 0.0 0.0 9.0 0.0 0.0 0.0 9.0" Properties=species:S:1:pos:R:3:momenta:R:3:forces:R:3 EPS_SCF=1e-06 energy=-1399.8011594163 units=gap_units Integrated_spin_density=6.55109e-05 opt_dir=/home/tks32/dft_pbe/apr_8_opt_fragments_subset/singlepoint_1_CO2 time=80.0 free_energy=-1399.8011594163 pbc="T T T"
C        0.20354928      -0.23023588      -0.01997328      -1.36672954       0.29250451       1.18231179      -2.09126880      -1.41842342      -0.08604784
O       -0.80846841      -0.83730272      -0.15819243      -2.33104910       2.24147585      -0.23481948       0.71573486       0.31384643      -0.39897163
O        1.25910262       0.37891880       0.23194559       0.64134512      -4.72294985      -1.30746574       0.22191980      -0.38206603       0.11537310
C        3.67192529       0.82143749       0.23846770       0.15158964       0.05431986      -1.15807019       0.03382483      -0.13215519      -0.54770771
C        3.76914030      -0.24594518      -0.40332799       1.75264757       0.90581415       1.76786937      -0.03724362       0.61685680       1.25269076
H        3.11934861       1.58289094      -0.34645501      -0.02391389       0.62477612      -0.16047811       0.11201590       0.68560559       0.14433745
H        3.75479622       1.02645414       1.33924528       0.69790974       0.32458330      -0.29454857       0.32323475       0.07630653      -0.41634989
H        0.76944346       1.26019241       0.48155727       0.18112917      -0.03781994       0.23061306       1.14728552       0.51364706       0.15653345
H        4.41467621      -1.10448434      -0.58229153       0.29707128       0.31729599      -0.02541212      -0.42550324      -0.27361778      -0.21985767
9
Lattice="13.0 0.0 0.0 0.0 9.0 0.0 0.0 0.0 9.0" Properties=species:S:1:pos:R:3:momenta:R:3:forces:R:3 EPS_SCF=1e-06 energy=-1399.8030676538842 units=gap_units Integrated_spin_density=6.55109e-05 opt_dir=/home/tks32/dft_pbe/apr_8_opt_fragments_subset/singlepoint_1_CO2 time=80.0 free_energy=-1399.8030676538842 pbc="T T T"
C        0.20322252      -0.23045751      -0.01998673      -1.36672954       0.29250451       1.18231179      -2.03138858      -1.38142393      -0.07501773
O       -0.80835658      -0.83725368      -0.15825477      -2.33104910       2.24147585      -0.23481948       0.67810679       0.29196024      -0.40385635
O        1.25913729       0.37885910       0.23196361       0.64134512      -4.72294985      -1.30746574       0.19751154      -0.38980385       0.11223100
C        3.67193057       0.82141684       0.23838212       0.15158964       0.05431986      -1.15807019       0.03298499      -0.11737111      -0.53716430
C        3.76913448      -0.24584880      -0.40313226       1.75264757       0.90581415       1.76786937      -0.03278747       0.59917885       1.24180151
H        3.11936611       1.58299806      -0.34643245      -0.02391389       0.62477612      -0.16047811       0.11273702       0.68511847       0.14393061
H        3.75484673       1.02646606       1.33918022       0.69790974       0.32458330      -0.29454857       0.32196843       0.07616245      -0.41755574
H        0.76962273       1.26027267       0.48158173       0.18112917      -0.03781994       0.23061306       1.14903677       0.50607485       0.15432396
H        4.41460972      -1.10452709      -0.58232588       0.29707128       0.31729599      -0.02541212      -0.42816949      -0.26989596      -0.21869297
9
Lattice="13.0 0.0 0.0 0.0 9.0 0.0 0.0 0.0 9.0" Properties=species:S:1:pos:R:3:momenta:R:3:forces:R:3 EPS_SCF=1e-06 energy=-1399.8067328882616 units=gap_units Integrated_spin_density=6.55109e-05 opt_dir=/home/tks32/dft_pbe/apr_8_opt_fragments_subset/singlepoint_1_CO2 time=80.0 free_energy=-1399.8067328882616 pbc="T T T"
C        0.20257864      -0.23089485      -0.02001175      -1.36672954       0.29250451       1.18231179      -1.91382985      -1.30875814      -0.05337031
O       -0.80813916      -0.83715927      -0.15838042      -2.33104910       2.24147585      -0.23481948       0.60400755       0.24887324      -0.41348806
O        1.25920251       0.37873825       0.23199916       0.64134512      -4.72294985      -1.30746574       0.14991880      -0.40488157       0.10612907
C        3.67194101       0.82137805       0.23821260       0.15158964       0.05431986      -1.15807019       0.03129763      -0.08795816      -0.51622770
C        3.76912360      -0.24565888      -0.40274227       1.75264757       0.90581415       1.76786937      -0.02402119       0.56407361       1.22013677
H        3.11940128       1.58321245      -0.34638737      -0.02391389       0.62477612      -0.16047811       0.11416938       0.68414034       0.14311930
H        3.75494762       1.02648991       1.33904977       0.69790974       0.32458330      -0.29454857       0.31945498       0.07589419      -0.41989917
H        0.76998192       1.26043205       0.48163031       0.18112917      -0.03781994       0.23061306       1.15242309       0.49117980       0.14997988
H        4.41447616      -1.10461205      -0.58239446       0.29707128       0.31729599      -0.02541212      -0.43342039      -0.26256329      -0.21637979
9
Lattice="13.0 0.0 0.0 0.0 9.0 0.0 0.0 0.0 9.0" Properties=species:S:1:pos:R:3:momenta:R:3:forces:R:3 EPS_SCF=1e-06 energy=-1399.8118736440993 units=gap_units Integrated_spin_density=6.55109e-05 opt_dir=/home/tks32/dft_pbe/apr_8_opt_fragments_subset/singlepoint_1_CO2 time=80.0 free_energy=-1399.8118736440993 pbc="T T T"
C        0.20163724      -0.23153595      -0.02004436      -1.36672954       0.29250451       1.18231179      -1.74314112      -1.20317489      -0.02195165
O       -0.80782927      -0.83702724      -0.15857169      -2.33104910       2.24147585      -0.23481948       0.49588460       0.18603667      -0.42757113
O        1.25928956       0.37855292       0.23205123       0.64134512      -4.72294985      -1.30746574       0.08161249      -0.42650857       0.09743050
C        3.67195632       0.82132650       0.23796242       0.15158964       0.05431986      -1.15807019       0.02875365      -0.04428179      -0.48523215
C        3.76910926      -0.24538128      -0.40216054       1.75264757       0.90581415       1.76786937      -0.01125184       0.51210349       1.18795120
H        3.11945452       1.58353477      -0.34631973      -0.02391389       0.62477612      -0.16047811       0.11629422       0.68266186       0.14190696
H        3.75509884       1.02652572       1.33885296       0.69790974       0.32458330      -0.29454857       0.31573148       0.07554479      -0.42323598
H        0.77052313       1.26066837       0.48170240       0.18112917      -0.03781994       0.23061306       1.15720578       0.46946598       0.14365255
H        4.41427399      -1.10473815      -0.58249709       0.29707128       0.31729599      -0.02541212      -0.44108924      -0.25184753      -0.21295030
9
Lattice="13.0 0.0 0.0 0.0 9.0 0.0 0.0 0.0 9.0" Properties=species:S:1:pos:R:3:momenta:R:3:forces:R:3 EPS_SCF=1e-06 energy=-1399.8181189814372 units=gap_units Integrated_spin_density=6.55109e-05 opt_dir=/home/tks32/dft_pbe/apr_8_opt_fragments_subset/singlepoint_1_CO2 time=80.0 free_energy=-1399.8181189814372 pbc="T T T"
C        0.20042801      -0.23236277      -0.02007826      -1.36672954       0.29250451       1.18231179      -1.52634207      -1.06890792       0.01794735
O       -0.80744739      -0.83686978      -0.15883262      -2.33104910       2.24147585      -0.23481948       0.35764253       0.10576726      -0.44562618
O        1.25938485       0.37829756       0.23211832       0.64134512      -4.72294985      -1.30746574      -0.00372762      -0.45353304       0.08666596
C        3.67197607       0.82127091       0.23763649       0.15158964       0.05431986      -1.15807019       0.02535472       0.01298284      -0.44475682
C        3.76909402      -0.24502510      -0.40139032       1.75264757       0.90581415       1.76786937       0.00503364       0.44424898       1.14569495
H        3.11952658       1.58396662      -0.34622939      -0.02391389       0.62477612      -0.16047811       0.11908494       0.68066751       0.14029672
H        3.75530049       1.02657364       1.33858795       0.69790974       0.32458330      -0.29454857       0.31085220       0.07518388      -0.42733787
H        0.77125050       1.26097854       0.48179711       0.18112917      -0.03781994       0.23061306       1.16302145       0.44169106       0.13556912
H        4.41400044      -1.10490395      -0.58263368       0.29707128       0.31729599      -0.02541212      -0.45091980      -0.23810058      -0.20845324
9
Lattice="13.0 0.0 0.0 0.0 9.0 0.0 0.0 0.0 9.0" Properties=species:S:1:pos:R:3:momenta:R:3:forces:R:3 EPS_SCF=1e-06 energy=-1399.8250655494526 units=gap_units Integrated_spin_density=6.55109e-05 opt_dir=/home/tks32/dft_pbe/apr_8_opt_fragments_subset/singlepoint_1_CO2 time=80.0 free_energy=-1399.8250655494526 pbc="T T T"
C        0.19899112      -0.23335104      -0.02010468      -1.36672954       0.29250451       1.18231179      -1.27307101      -0.91175921       0.06457844
O       -0.80702202      -0.83670391      -0.15916924      -2.33104910       2.24147585      -0.23481948       0.19486423       0.01137857      -0.46695547
O        1.25946975       0.37796416       0.23219849       0.64134512      -4.72294985      -1.30746574      -0.10128842      -0.48449072       0.07451162
C        3.67199964       0.82122385       0.23724158       0.15158964       0.05431986      -1.15807019       0.02113260       0.08269245      -0.39572341
C        3.76908146      -0.24460309      -0.40043545       1.75264757       0.90581415       1.76786937       0.02414161       0.36207743       1.09410528
H        3.11961863       1.58451073      -0.34611604      -0.02391389       0.62477612      -0.16047811       0.12250733       0.67813615       0.13829035
H        3.75555298       1.02663393       1.33825184       0.69790974       0.32458330      -0.29454857       0.30488926       0.07491137      -0.43188206
H        0.77217075       1.26135857       0.48191331       0.18112917      -0.03781994       0.23061306       1.16938272       0.40886467       0.12603176
H        4.41365127      -1.10510754      -0.58280422       0.29707128       0.31729599      -0.02541212      -0.46255832      -0.22181071      -0.20295651
9
Lattice="13.0 0.0 0.0 0.0 9.0 0.0 0.0 0.0 9.0" Properties=species:S:1:pos:R:3:momenta:R:3:forces:R:3 EPS_SCF=1e-06 energy=-1399.8323450028258 units=gap_units Integrated_spin_density=6.55109e-05 opt_dir=/home/tks32/dft_pbe/apr_8_opt_fragments_subset/singlepoint_1_CO2 time=80.0 free_energy=-1399.8323450028258 pbc="T T T"
C        0.19737773      -0.23446979      -0.02011221      -1.36672954       0.29250451       1.18231179      -0.99576753      -0.73920609       0.11571729
O       -0.80659018      -0.83655177      -0.15958963      -2.33104910       2.24147585      -0.23481948       0.01508278      -0.09265878      -0.49059889
O        1.25952070       0.37754224       0.23228939       0.64134512      -4.72294985      -1.30746574      -0.20522275      -0.51766235       0.06176213
C        3.67202616       0.82120229       0.23678664       0.15158964       0.05431986      -1.15807019       0.01617600       0.16300431      -0.33953945
C        3.76907622      -0.24413221      -0.39930090       1.75264757       0.90581415       1.76786937       0.04513498       0.26798973       1.03434612
H        3.11973229       1.58517099      -0.34597925      -0.02391389       0.62477612      -0.16047811       0.12651798       0.67504392       0.13588796
H        3.75585690       1.02670704       1.33784072       0.69790974       0.32458330      -0.29454857       0.29793629       0.07486099      -0.43643962
H        0.77329309       1.26180343       0.48204959       0.18112917      -0.03781994       0.23061306       1.17568235       0.37225078       0.11541774
H        4.41322068      -1.10534656      -0.58300875       0.29707128       0.31729599      -0.02541212      -0.47554010      -0.20362251      -0.19655327
9
Lattice="13.0 0.0 0.0 0.0 9.0 0.0 0.0 0.0 9.0" Properties=species:S:1:pos:R:3:momenta:R:3:forces:R:3 EPS_SCF=1e-06 energy=-1399.8396926087842 units=gap_units Integrated_spin_density=6.55109e-05 opt_dir=/home/tks32/dft_pbe/apr_8_opt_fragments_subset/singlepoint_1_CO2 time=80.0 free_energy=-1399.8396926087842 pbc="T T T"
C        0.19565074      -0.23568076      -0.02008704      -1.36672954       0.29250451       1.18231179      -0.70976193      -0.56045880       0.16865579
O       -0.80619736      -0.83644043      -0.16010344      -2.33104910       2.24147585      -0.23481948      -0.17199834      -0.20059002      -0.51529349
O        1.25950988       0.37701959       0.23238825       0.64134512      -4.72294985      -1.30746574      -0.30881261      -0.55114346       0.04929505
C        3.67205450       0.82122789       0.23628344       0.15158964       0.05431986      -1.15807019       0.01066364       0.25108549      -0.27827636
C        3.76908397      -0.24363442      -0.39799422       1.75264757       0.90581415       1.76786937       0.06679686       0.16552661       0.96819177
H        3.11986952       1.58595160      -0.34581862      -0.02391389       0.62477612      -0.16047811       0.13105960       0.67137139       0.13309007
H        3.75621268       1.02679351       1.33735021       0.69790974       0.32458330      -0.29454857       0.29011663       0.07520058      -0.44046882
H        0.77462780       1.26230659       0.48220411       0.18112917      -0.03781994       0.23061306       1.18120935       0.33336848       0.10417886
H        4.41270185      -1.10561790      -0.58324710       0.29707128       0.31729599      -0.02541212      -0.48927319      -0.18436029      -0.18937287
9
Lattice="13.0 0.0 0.0 0.0 9.0 0.0 0.0 0.0 9.0" Properties=species:S:1:pos:R:3:momenta:R:3:forces:R:3 EPS_SCF=1e-06 energy=-1399.8477680606063 units=gap_units Integrated_spin_density=6.55109e-05 opt_dir=/home/tks32/dft_pbe/apr_8_opt_fragments_subset/singlepoint_1_CO2 time=80.0 free_energy=-1399.8477680606063 pbc="T T T"
C        0.19369497      -0.23707392      -0.02000365      -1.36672954       0.29250451       1.18231179      -0.40400272      -0.36800664       0.22567388
O       -0.80586810      -0.83639974      -0.16079076      -2.33104910       2.24147585      -0.23481948      -0.37375925      -0.31641619      -0.54201759