9
Lattice="13.0 0.0 0.0 0.0 9.0 0.0 0.0 0.0 9.0" Properties=species:S:1:pos:R:3:momenta:R:3:forces:R:3 EPS_SCF=1e-06 energy=-1398.4693291582894 units=gap_units Integrated_spin_density=6.55109e-05 opt_dir=/home/tks32/dft_pbe/apr_8_opt_fragments_subset/singlepoint_1_CO2 time=50.0 free_energy=-1398.4693291582894 pbc="T T T"
C        0.20055584      -0.01344275       0.02565221       0.49901376       0.50477729      -0.23107253       2.35965805       0.15846853      -0.61224205
O        0.04009904      -1.15258291      -0.25577832      -5.57987722       0.25231586       0.91248780      -1.67256345       0.27214093       0.24849150
O        1.04261379       0.90378542       0.31219512       0.61525100      -2.78051949      -0.32714727      -1.17637939      -0.13639333       0.14983587
C        3.57196829       0.57671843       0.37230757       0.41937185       0.54670914      -0.65103739      -1.73371744      -0.46791050      -2.52137487
C        3.19090343      -0.47458063      -0.42937877       4.71549964       0.96114813       0.09274312      -1.58372230       3.09998017       0.42137826
H        3.08202079       1.63022751       0.17329804      -0.03153091       0.09598405       0.01566817       2.24877551      -1.70634098       1.01855771
H        4.47633852       0.32852266       0.97503758      -0.29078840       0.07017909       0.04995092      -0.22964431       0.70988382       0.06930042
H        1.38200625       1.44596622      -0.53208311      -0.58430871       0.59655093       0.20437585      -0.22843890      -1.26607862       0.48642288
H        2.22625074      -0.51265786      -1.13732287       0.23736901      -0.24714500      -0.06596865       2.01603222      -0.66375001       0.73963028
9
Lattice="13.0 0.0 0.0 0.0 9.0 0.0 0.0 0.0 9.0" Properties=species:S:1:pos:R:3:momenta:R:3:forces:R:3 EPS_SCF=1e-06 energy=-1398.8555077892745 units=gap_units Integrated_spin_density=6.55109e-05 opt_dir=/home/tks32/dft_pbe/apr_8_opt_fragments_subset/singlepoint_1_CO2 time=50.0 free_energy=-1398.8555077892745 pbc="T T T"
C        0.22415242      -0.01185806       0.01952979       0.49901376       0.50477729      -0.23107253       1.30023641      -0.92051757      -0.66738328
O        0.02337341      -1.14986150      -0.25329340      -5.57987722       0.25231586       0.91248780      -1.52080625       0.54214771       0.24693345
O        1.03085000       0.90242149       0.31369348       0.61525100      -2.78051949      -0.32714727      -0.52303624       0.35015522       0.53865794
C        3.55463112       0.57203932       0.34709382       0.41937185       0.54670914      -0.65103739      -0.23748064      -0.14918437      -0.94533485
C        3.17506621      -0.44358083      -0.42516499       4.71549964       0.96114813       0.09274312      -1.62334251       1.82112390      -0.28611774
H        3.10450855       1.61316410       0.18348362      -0.03153091       0.09598405       0.01566817       1.62336689      -0.95225817       0.74337339
H        4.47404208       0.33562150       0.97573058      -0.29078840       0.07017909       0.04995092      -0.77016574       0.73461346      -0.33736584
H        1.37972186       1.43330543      -0.52721888      -0.58430871       0.59655093       0.20437585      -0.01017913      -0.84414168       0.13174830
H        2.24641106      -0.51929536      -1.12992657       0.23736901      -0.24714500      -0.06596865       1.76140721      -0.58193850       0.57548863
9
Lattice="13.0 0.0 0.0 0.0 9.0 0.0 0.0 0.0 9.0" Properties=species:S:1:pos:R:3:momenta:R:3:forces:R:3 EPS_SCF=1e-06 energy=-1399.2610102806793 units=gap_units Integrated_spin_density=6.55109e-05 opt_dir=/home/tks32/dft_pbe/apr_8_opt_fragments_subset/singlepoint_1_CO2 time=50.0 free_energy=-1399.2610102806793 pbc="T T T"
C        0.26027636      -0.02097128       0.00637843       0.49901376       0.50477729      -0.23107253       0.18339066      -1.19730046      -0.37005400
O       -0.00909209      -1.14120493      -0.24822973      -5.57987722       0.25231586       0.91248780      -1.32453167       0.09399063       0.00593017
O        1.01427410       0.90520304       0.32120935       0.61525100      -2.78051949      -0.32714727       0.08933707       0.70759366       0.81930248
C        3.53630863       0.56612005       0.31357787       0.41937185       0.54670914      -0.65103739       0.75817601      -1.63091700      -0.39059444
C        3.14222630      -0.39483011      -0.42464848       4.71549964       0.96114813       0.09274312      -0.31454036       1.87583406       0.58639161
H        3.14333421       1.58690418       0.20116187      -0.03153091       0.09598405       0.01566817       0.65020142       0.36600976       0.34423296
H        4.46315729       0.35042138       0.97249163      -0.29078840       0.07017909       0.04995092      -1.08531819       0.56348952      -0.68332873
H        1.37754937       1.41224575      -0.52133263      -0.58430871       0.59655093       0.20437585       0.20812994      -0.24925039      -0.27389196
H        2.28472252      -0.53193200      -1.11668086       0.23736901      -0.24714500      -0.06596865       0.83515510      -0.52944979      -0.03798808
9
Lattice="13.0 0.0 0.0 0.0 9.0 0.0 0.0 0.0 9.0" Properties=species:S:1:pos:R:3:momenta:R:3:forces:R:3 EPS_SCF=1e-06 energy=-1399.304126535024 units=gap_units Integrated_spin_density=6.55109e-05 opt_dir=/home/tks32/dft_pbe/apr_8_opt_fragments_subset/singlepoint_1_CO2 time=50.0 free_energy=-1399.304126535024 pbc="T T T"
C        0.29515261      -0.04461165      -0.01022942       0.49901376       0.50477729      -0.23107253       0.19988452       0.43299043       0.46477134
O       -0.05539007      -1.13220206      -0.24359595      -5.57987722       0.25231586       0.91248780      -1.06472824      -0.72153709      -0.32437779
O        1.00050773       0.91683043       0.33853805       0.61525100      -2.78051949      -0.32714727      -0.23854987      -0.12577478       0.29268222
C        3.52959462       0.53976300       0.27837703       0.41937185       0.54670914      -0.65103739       3.48324019       4.09694530       4.43889806
C        3.10861458      -0.32676670      -0.41662245       4.71549964       0.96114813       0.09274312      -1.68048138      -4.35696082      -3.41169908
H        3.18666127       1.56798974       0.22151097      -0.03153091       0.09598405       0.01566817       0.10081778       1.03310383       0.14313125
H        4.43936645       0.37100714       0.96076545      -0.29078840       0.07017909       0.04995092      -0.68250292       0.11331536      -0.56080475
H        1.37827783       1.39007811      -0.51956667      -0.58430871       0.59655093       0.20437585       0.04397080       0.19974819      -0.33787870
H        2.32997167      -0.55013191      -1.10524955       0.23736901      -0.24714500      -0.06596865      -0.16165089      -0.67183041      -0.70472255
9
Lattice="13.0 0.0 0.0 0.0 9.0 0.0 0.0 0.0 9.0" Properties=species:S:1:pos:R:3:momenta:R:3:forces:R:3 EPS_SCF=1e-06 energy=-1399.444712678953 units=gap_units Integrated_spin_density=6.55109e-05 opt_dir=/home/tks32/dft_pbe/apr_8_opt_fragments_subset/singlepoint_1_CO2 time=50.0 free_energy=-1399.444712678953 pbc="T T T"
C        0.29565232      -0.04352918      -0.00906749       0.49901376       0.50477729      -0.23107253       0.03050643       0.00925533       0.36032898
O       -0.05805189      -1.13400591      -0.24440689      -5.57987722       0.25231586       0.91248780      -0.96631665      -0.38066233      -0.24705633
O        0.99991136       0.91651599       0.33926975       0.61525100      -2.78051949      -0.32714727      -0.10831009      -0.06173969       0.26776765
C        3.53830273       0.55000536       0.28947427       0.41937185       0.54670914      -0.65103739       1.58506711       0.87095582       1.63303378
C        3.10441337      -0.33765910      -0.42515170       4.71549964       0.96114813       0.09274312       0.17823350      -1.09105467      -0.54429618
H        3.18691331       1.57057250       0.22186880      -0.03153091       0.09598405       0.01566817       0.09056540       1.05074890       0.14637283
H        4.43766020       0.37129043       0.95936344      -0.29078840       0.07017909       0.04995092      -0.46420976       0.12175902      -0.39787389
H        1.37838776       1.39057748      -0.52041137      -0.58430871       0.59655093       0.20437585       0.11495829       0.15229085      -0.28063207
H        2.32956754      -0.55181148      -1.10701136       0.23736901      -0.24714500      -0.06596865      -0.46049422      -0.67155324      -0.93764476
9
Lattice="13.0 0.0 0.0 0.0 9.0 0.0 0.0 0.0 9.0" Properties=species:S:1:pos:R:3:momenta:R:3:forces:R:3 EPS_SCF=1e-06 energy=-1399.4620554440314 units=gap_units Integrated_spin_density=6.55109e-05 opt_dir=/home/tks32/dft_pbe/apr_8_opt_fragments_subset/singlepoint_1_CO2 time=50.0 free_energy=-1399.4620554440314 pbc="T T T"
C        0.29619892      -0.04252556      -0.00687769       0.49901376       0.50477729      -0.23107253      -0.20645645      -0.57580280       0.20919161
O       -0.06351565      -1.13683799      -0.24592116      -5.57987722       0.25231586       0.91248780      -0.77554441       0.15238883      -0.12132538
O        0.99903073       0.91603697       0.34077847       0.61525100      -2.78051949      -0.32714727       0.06219857       0.00156477       0.20988263
C        3.55117271       0.56198883       0.30464678       0.41937185       0.54670914      -0.65103739      -0.22662003      -1.38305589      -0.71147111
C        3.10119819      -0.35092643      -0.43455620       4.71549964       0.96114813       0.09274312       1.58456159       1.32424033       1.63251968
H        3.18742770       1.57623318       0.22265558      -0.03153091       0.09598405       0.01566817       0.12263005       0.95468409       0.16878801
H        4.43465067       0.37193198       0.95683836      -0.29078840       0.07017909       0.04995092      -0.04251924       0.09429708      -0.08270367
H        1.37885169       1.39151045      -0.52206262      -0.58430871       0.59655093       0.20437585       0.18298703       0.07138425      -0.18631983
H        2.32774173      -0.55545533      -1.11157407       0.23736901      -0.24714500      -0.06596865      -0.70123711      -0.63970065      -1.11856195
9
Lattice="13.0 0.0 0.0 0.0 9.0 0.0 0.0 0.0 9.0" Properties=species:S:1:pos:R:3:momenta:R:3:forces:R:3 EPS_SCF=1e-06 energy=-1399.4702926432124 units=gap_units Integrated_spin_density=6.55109e-05 opt_dir=/home/tks32/dft_pbe/apr_8_opt_fragments_subset/singlepoint_1_CO2 time=50.0 free_energy=-1399.4702926432124 pbc="T T T"
C        0.29606989      -0.04288544      -0.00674695       0.49901376       0.50477729      -0.23107253      -0.18690422      -0.52941934       0.21887027
O       -0.06400037      -1.13674275      -0.24599699      -5.57987722       0.25231586       0.91248780      -0.77606372       0.13503895      -0.12391757
O        0.99906960       0.91603795       0.34090964       0.61525100      -2.78051949      -0.32714727       0.04981151      -0.01666234       0.19704815
C        3.55103107       0.56112442       0.30420211       0.41937185       0.54670914      -0.65103739      -0.18584717      -1.24353721      -0.63042678
C        3.10218854      -0.35009878      -0.43353587       4.71549964       0.96114813       0.09274312       1.46045812       1.20548068       1.48264865
H        3.18750435       1.57682985       0.22276108      -0.03153091       0.09598405       0.01566817       0.13384247       0.91861646       0.17175203
H        4.43462409       0.37199092       0.95678667      -0.29078840       0.07017909       0.04995092      -0.03886984       0.09244270      -0.07761072
H        1.37896606       1.39155506      -0.52217907      -0.58430871       0.59655093       0.20437585       0.17315466       0.06611309      -0.17945577
H        2.32730345      -0.55585514      -1.11227317       0.23736901      -0.24714500      -0.06596865      -0.62958181      -0.62807299      -1.05890826
9
Lattice="13.0 0.0 0.0 0.0 9.0 0.0 0.0 0.0 9.0" Properties=species:S:1:pos:R:3:momenta:R:3:forces:R:3 EPS_SCF=1e-06 energy=-1399.4842538720795 units=gap_units Integrated_spin_density=6.55109e-05 opt_dir=/home/tks32/dft_pbe/apr_8_opt_fragments_subset/singlepoint_1_CO2 time=50.0 free_energy=-1399.4842538720795 pbc="T T T"
C        0.29582429      -0.04357604      -0.00647767       0.49901376       0.50477729      -0.23107253      -0.15049220      -0.44304771       0.23658467
O       -0.06497417      -1.13656349      -0.24615107      -5.57987722       0.25231586       0.91248780      -0.77607296       0.10384451      -0.12844469
O        0.99913909       0.91602729       0.34116419       0.61525100      -2.78051949      -0.32714727       0.02692781      -0.05094377       0.17261182
C        3.55077486       0.55948509       0.30336523       0.41937185       0.54670914      -0.65103739      -0.09863567      -0.95666529      -0.45951525
C        3.10409147      -0.34851890      -0.43159059       4.71549964       0.96114813       0.09274312       1.21421073       0.95809262       1.18056975
H        3.18766603       1.57800316       0.22297499      -0.03153091       0.09598405       0.01566817       0.15489789       0.84976143       0.17729136
H        4.43457325       0.37210799       0.95668639      -0.29078840       0.07017909       0.04995092      -0.03110458       0.08888028      -0.06721984
H        1.37918893       1.39164101      -0.52240818      -0.58430871       0.59655093       0.20437585       0.15430554       0.05583306      -0.16615467
H        2.32647292      -0.55665002      -1.11363583       0.23736901      -0.24714500      -0.06596865      -0.49403656      -0.60575512      -0.94572315
9
Lattice="13.0 0.0 0.0 0.0 9.0 0.0 0.0 0.0 9.0" Properties=species:S:1:pos:R:3:momenta:R:3:forces:R:3 EPS_SCF=1e-06 energy=-1399.499526977371 units=gap_units Integrated_spin_density=6.55109e-05 opt_dir=/home/tks32/dft_pbe/apr_8_opt_fragments_subset/singlepoint_1_CO2 time=50.0 free_energy=-1399.499526977371 pbc="T T T"
C        0.29548583      -0.04454329      -0.00605072       0.49901376       0.50477729      -0.23107253      -0.10251246      -0.32916316       0.25909755
O       -0.06645615      -1.13632113      -0.24638997      -5.57987722       0.25231586       0.91248780      -0.77351352       0.06575628      -0.13355937
O        0.99922265       0.91597794       0.34152797       0.61525100      -2.78051949      -0.32714727      -0.00273561      -0.09709815       0.13885344
C        3.55046732       0.55726321       0.30225348       0.41937185       0.54670914      -0.65103739       0.03968675      -0.51899910      -0.19153494
C        3.10675156      -0.34634941      -0.42891865       4.71549964       0.96114813       0.09274312       0.85545648       0.57493426       0.73140614
H        3.18793242       1.57972220       0.22330585      -0.03153091       0.09598405       0.01566817       0.18318362       0.75428552       0.18468970
H        4.43450323       0.37228271       0.95654368      -0.29078840       0.07017909       0.04995092      -0.01819616       0.08387326      -0.05107143
H        1.37950991       1.39176193      -0.52274403      -0.58430871       0.59655093       0.20437585       0.12809262       0.04096014      -0.14711997
H        2.32533994      -0.55783808      -1.11560018       0.23736901      -0.24714500      -0.06596865      -0.30946173      -0.57454907      -0.79076113
9
Lattice="13.0 0.0 0.0 0.0 9.0 0.0 0.0 0.0 9.0" Properties=species:S:1:pos:R:3:momenta:R:3:forces:R:3 EPS_SCF=1e-06 energy=-1399.5113469187243 units=gap_units Integrated_spin_density=6.55109e-05 opt_dir=/home/tks32/dft_pbe/apr_8_opt_fragments_subset/singlepoint_1_CO2 time=50.0 free_energy=-1399.5113469187243 pbc="T T T"
C        0.29508694      -0.04571650      -0.00542820       0.49901376       0.50477729      -0.23107253      -0.05069853      -0.20573453       0.28165472
O       -0.06850123      -1.13604254      -0.24672779      -5.57987722       0.25231586       0.91248780      -0.76532637       0.03100014      -0.13717418
O        0.99929533       0.91584424       0.34198306       0.61525100      -2.78051949      -0.32714727      -0.03371235      -0.14919357       0.09877942
C        3.55022702       0.55478627       0.30107678       0.41937185       0.54670914      -0.65103739       0.21956441       0.04370377       0.15812350
C        3.10993228      -0.34386817      -0.42584132       4.71549964       0.96114813       0.09274312       0.41322694       0.07695153       0.16766697
H        3.18834062       1.58196295       0.22377345      -0.03153091       0.09598405       0.01566817       0.21502157       0.64062984       0.19301013
H        4.43442347       0.37251709       0.95636829      -0.29078840       0.07017909       0.04995092       0.00163870       0.07777179      -0.02834593
H        1.37991659       1.39190842      -0.52318158      -0.58430871       0.59655093       0.20437585       0.09708319       0.02186025      -0.12305021
H        2.32403569      -0.55943567      -1.11809524       0.23736901      -0.24714500      -0.06596865      -0.09679755      -0.53698922      -0.61066443
9
Lattice="13.0 0.0 0.0 0.0 9.0 0.0 0.0 0.0 9.0" Properties=species:S:1:pos:R:3:momenta:R:3:forces:R:3 EPS_SCF=1e-06 energy=-1399.5173983555435 units=gap_units Integrated_spin_density=6.55109e-05 opt_dir=/home/tks32/dft_pbe/apr_8_opt_fragments_subset/singlepoint_1_CO2 time=50.0 free_energy=-1399.5173983555435 pbc="T T T"
C        0.29467086      -0.04700405      -0.00455080       0.49901376       0.50477729      -0.23107253      -0.00577435      -0.09711181       0.29775312
O       -0.07120356      -1.13575690      -0.24718629      -5.57987722       0.25231586       0.91248780      -0.74769691       0.01312735      -0.13638040
O        0.99932278       0.91555592       0.34250387       0.61525100      -2.78051949      -0.32714727      -0.05839442      -0.19903051       0.05634709
C        3.55025797       0.55260623       0.30019579       0.41937185       0.54670914      -0.65103739       0.39588350       0.63215700       0.51619420
C        3.11326022      -0.34154842      -0.42288294       4.71549964       0.96114813       0.09274312      -0.04062368      -0.44288610      -0.41360451
H        3.18895010       1.58470098       0.22441163      -0.03153091       0.09598405       0.01566817       0.24536726       0.52048189       0.20111410
H        4.43435353       0.37281560       0.95617851      -0.29078840       0.07017909       0.04995092       0.03083489       0.07109640       0.00188230
H        1.38039192       1.39206488      -0.52371392      -0.58430871       0.59655093       0.20437585       0.06533868      -0.00112897      -0.09463075
H        2.32275287      -0.56147814      -1.12102840       0.23736901      -0.24714500      -0.06596865       0.11506504      -0.49670525      -0.42867514
9
Lattice="13.0 0.0 0.0 0.0 9.0 0.0 0.0 0.0 9.0" Properties=species:S:1:pos:R:3:momenta:R:3:forces:R:3 EPS_SCF=1e-06 energy=-1399.5202539735378 units=gap_units Integrated_spin_density=6.55109e-05 opt_dir=/home/tks32/dft_pbe/apr_8_opt_fragments_subset/singlepoint_1_CO2 time=50.0 free_energy=-1399.5202539735378 pbc="T T T"
C        0.29428998      -0.04827064      -0.00343062       0.49901376       0.50477729      -0.23107253       0.02257495      -0.02509568       0.30227664
O       -0.07446561      -1.13548526      -0.24775032      -5.57987722       0.25231586       0.91248780      -0.72002167       0.02063386      -0.12953038
O        0.99928267       0.91507551       0.34303514       0.61525100      -2.78051949      -0.32714727      -0.07023065      -0.23791804       0.01699539
C        3.55072527       0.55134589       0.29997588       0.41937185       0.54670914      -0.65103739       0.49689431       1.07834618       0.75998032
C        3.11621027      -0.33995224      -0.42067950       4.71549964       0.96114813       0.09274312      -0.39646511      -0.82570611      -0.85772873
H        3.18977100       1.58774294       0.22520922      -0.03153091       0.09598405       0.01566817       0.26853786       0.41032821       0.20776579
H        4.43432482       0.37316317       0.95600981      -0.29078840       0.07017909       0.04995092       0.06857621       0.06476354       0.03764293
H        1.38089223       1.39220444      -0.52429808      -0.58430871       0.59655093       0.20437585       0.03826242      -0.02631059      -0.06409654
H        2.32172605      -0.56386772      -1.12414408       0.23736901      -0.24714500      -0.06596865       0.29187167      -0.45904136      -0.27330541
9
Lattice="13.0 0.0 0.0 0.0 9.0 0.0 0.0 0.0 9.0" Properties=species:S:1:pos:R:3:momenta:R:3:forces:R:3 EPS_SCF=1e-06 energy=-1399.5246996253477 units=gap_units Integrated_spin_density=6.55109e-05 opt_dir=/home/tks32/dft_pbe/apr_8_opt_fragments_subset/singlepoint_1_CO2 time=50.0 free_energy=-1399.5246996253477 pbc="T T T"
C        0.29396920      -0.04943503      -0.00212774       0.49901376       0.50477729      -0.23107253       0.03176885       0.00510597       0.29456434
O       -0.07810348      -1.13522066      -0.24838424      -5.57987722       0.25231586       0.91248780      -0.68484509       0.05182359      -0.11716703
O        0.99917810       0.91441116       0.34352985       0.61525100      -2.78051949      -0.32714727      -0.06791983      -0.26217794      -0.01583141
C        3.55163031       0.55126299       0.30051895       0.41937185       0.54670914      -0.65103739       0.48234371       1.27804649       0.81554036
C        3.11847876      -0.33932076      -0.41953270       4.71549964       0.96114813       0.09274312      -0.59117749      -0.97276516      -1.07274203
H        3.19077164       1.59088077       0.22612963      -0.03153091       0.09598405       0.01566817       0.28202051       0.31968696       0.21242356
H        4.43436583       0.37353913       0.95589467      -0.29078840       0.07017909       0.04995092       0.11106311       0.05937588       0.07518872
H        1.38137983       1.39230439      -0.52488631      -0.58430871       0.59655093       0.20437585       0.01866504      -0.05177513      -0.03373899
H        2.32108650      -0.56646590      -1.12721467       0.23736901      -0.24714500      -0.06596865       0.41808119      -0.42732066      -0.15823752
9
Lattice="13.0 0.0 0.0 0.0 9.0 0.0 0.0 0.0 9.0" Properties=species:S:1:pos:R:3:momenta:R:3:forces:R:3 EPS_SCF=1e-06 energy=-1399.5342467105584 units=gap_units Integrated_spin_density=6.55109e-05 opt_dir=/home/tks32/dft_pbe/apr_8_opt_fragments_subset/singlepoint_1_CO2 time=50.0 free_energy=-1399.5342467105584 pbc="T T T"
C        0.29368596      -0.05058227      -0.00051946       0.49901376       0.50477729      -0.23107253       0.02084615      -0.00613729       0.27310797
O       -0.08244532      -1.13490268      -0.24913849      -5.57987722       0.25231586       0.91248780      -0.64033245       0.10768463      -0.09845962
O        0.99900114       0.91347003       0.34400250       0.61525100      -2.78051949      -0.32714727      -0.05019302      -0.27122102      -0.04266516
C        3.55304775       0.55256254       0.30193823       0.41937185       0.54670914      -0.65103739       0.33017566       1.18941795       0.64682547
C        3.12008547      -0.33974720      -0.41955705       4.71549964       0.96114813       0.09274312      -0.60722102      -0.84091730      -1.02591418
H        3.19206715       1.59433283       0.22727048      -0.03153091       0.09598405       0.01566817       0.28493605       0.24580913       0.21502752
H        4.43452651       0.37397552       0.95586197      -0.29078840       0.07017909       0.04995092       0.15861392       0.05473303       0.11456442
H        1.38188272       1.39234737      -0.52550514      -0.58430871       0.59655093       0.20437585       0.00628826      -0.07873992      -0.00214000
H        2.32090530      -0.56950006      -1.13042561       0.23736901      -0.24714500      -0.06596865       0.49688646      -0.40062921      -0.08034644
9
Lattice="13.0 0.0 0.0 0.0 9.0 0.0 0.0 0.0 9.0" Properties=species:S:1:pos:R:3:momenta:R:3:forces:R:3 EPS_SCF=1e-06 energy=-1399.5478742157457 units=gap_units Integrated_spin_density=6.55109e-05 opt_dir=/home/tks32/dft_pbe/apr_8_opt_fragments_subset/singlepoint_1_CO2 time=50.0 free_energy=-1399.5478742157457 pbc="T T T"
C        0.29343248      -0.05172731       0.00143125       0.49901376       0.50477729      -0.23107253      -0.01077122      -0.05758142       0.23739824
O       -0.08758491      -1.13444688      -0.25001463      -5.57987722       0.25231586       0.91248780      -0.58816361       0.18334904      -0.07430799
O        0.99876020       0.91218301       0.34441522       0.61525100      -2.78051949      -0.32714727      -0.01660539      -0.26225675      -0.06038136
C        3.55488383       0.55540415       0.30418976       0.41937185       0.54670914      -0.65103739       0.05494830       0.81303479       0.26599678
C        3.12088474      -0.34126824      -0.42092123       4.71549964       0.96114813       0.09274312      -0.44117879      -0.43531853      -0.71630056
H        3.19372331       1.59807524       0.22868204      -0.03153091       0.09598405       0.01566817       0.27422231       0.19438008       0.21458123
H        4.43489293       0.37447952       0.95597921      -0.29078840       0.07017909       0.04995092       0.20439889       0.05124710       0.14990282
H        1.38238935       1.39228712      -0.52612125      -0.58430871       0.59655093       0.20437585       0.00192223      -0.10574462       0.02885253
H        2.32137475      -0.57303052      -1.13371292       0.23736901      -0.24714500      -0.06596865       0.52122727      -0.38110969      -0.04574169
9
Lattice="13.0 0.0 0.0 0.0 9.0 0.0 0.0 0.0 9.0" Properties=species:S:1:pos:R:3:momenta:R:3:forces:R:3 EPS_SCF=1e-06 energy=-1399.5605881870817 units=gap_units Integrated_spin_density=6.55109e-05 opt_dir=/home/tks32/dft_pbe/apr_8_opt_fragments_subset/singlepoint_1_CO2 time=50.0 free_energy=-1399.5605881870817 pbc="T T T"
C        0.29316215      -0.05296404       0.00378163       0.49901376       0.50477729      -0.23107253      -0.05751610      -0.13365552       0.18990952
O       -0.09371232      -1.13367419      -0.25101380      -5.57987722       0.25231586       0.91248780      -0.53227094       0.26381227      -0.04798105
O        0.99849212       0.91044769       0.34471918       0.61525100      -2.78051949      -0.32714727       0.02953040      -0.23526235      -0.06572450
C        3.55680162       0.55964452       0.30688859       0.41937185       0.54670914      -0.65103739      -0.26292521       0.26267210      -0.21561113
C        3.12090670      -0.34353823      -0.42352665       4.71549964       0.96114813       0.09274312      -0.15375364       0.12491852      -0.24315754
H        3.19584580       1.60212814       0.23045761      -0.03153091       0.09598405       0.01566817       0.24657385       0.16844153       0.20934212
H        4.43561373       0.37506915       0.95635752      -0.29078840       0.07017909       0.04995092       0.23380925       0.05000088       0.16989145
H        1.38289539       1.39204252      -0.52668212      -0.58430871       0.59655093       0.20437585       0.00399023      -0.13043668       0.05638970
H        2.32275150      -0.57719948      -1.13705450       0.23736901      -0.24714500      -0.06596865       0.49256215      -0.37049076      -0.05305857
9
Lattice="13.0 0.0 0.0 0.0 9.0 0.0 0.0 0.0 9.0" Properties=species:S:1:pos:R:3:momenta:R:3:forces:R:3 EPS_SCF=1e-06 energy=-1399.5695823988942 units=gap_units Integrated_spin_density=6.55109e-05 opt_dir=/home/tks32/dft_pbe/apr_8_opt_fragments_subset/singlepoint_1_CO2 time=50.0 free_energy=-1399.5695823988942 pbc="T T T"
C        0.29275329      -0.05451860       0.00657961       0.49901376       0.50477729      -0.23107253      -0.10053575      -0.19005495       0.14011223
O       -0.10109735      -1.13226293      -0.25212332      -5.57987722       0.25231586       0.91248780      -0.48113074       0.31569926      -0.02736913
O        0.99829791       0.90814995       0.34486071       0.61525100      -2.78051949      -0.32714727       0.07635288      -0.19793120      -0.05696512
C        3.55806488       0.56449733       0.30904311       0.41937185       0.54670914      -0.65103739      -0.48033621      -0.24287704      -0.59452833
C        3.12055331      -0.34548809      -0.42670790       4.71549964       0.96114813       0.09274312       0.12486906       0.61609638       0.19201254
H        3.19855571       1.60656479       0.23273207      -0.03153091       0.09598405       0.01566817       0.20043205       0.16257007       0.19694631
H        4.43690022       0.37577683       0.95714786      -0.29078840       0.07017909       0.04995092       0.22102295       0.05348893       0.15595634
H        1.38340775       1.39148127      -0.52710161      -0.58430871       0.59655093       0.20437585       0.00651500      -0.14915312       0.07649193
H        2.32532096      -0.58224446      -1.14050306       0.23736901      -0.24714500      -0.06596865       0.43281077      -0.36783834      -0.08265677
9
Lattice="13.0 0.0 0.0 0.0 9.0 0.0 0.0 0.0 9.0" Properties=species:S:1:pos:R:3:momenta:R:3:forces:R:3 EPS_SCF=1e-06 energy=-1399.5791651561808 units=gap_units Integrated_spin_density=6.55109e-05 opt_dir=/home/tks32/dft_pbe/apr_8_opt_fragments_subset/singlepoint_1_CO2 time=50.0 free_energy=-1399.5791651561808 pbc="T T T"
C        0.29207988      -0.05656883       0.00973366       0.49901376       0.50477729      -0.23107253      -0.11680813      -0.17850352       0.10094682
O       -0.10971766      -1.13002167      -0.25329921      -5.57987722       0.25231586       0.91248780      -0.44197389       0.31050282      -0.02003201