9
Lattice="13.0 0.0 0.0 0.0 9.0 0.0 0.0 0.0 9.0" Properties=species:S:1:pos:R:3:momenta:R:3:forces:R:3 EPS_SCF=1e-06 energy=-1398.9730176944431 units=gap_units Integrated_spin_density=6.55109e-05 opt_dir=/home/tks32/dft_pbe/apr_8_opt_fragments_subset/singlepoint_1_CO2 time=75.0 free_energy=-1398.9730176944431 pbc="T T T"
C        0.26694177      -0.22003875      -0.06851670      -1.83855332      -0.29839531       0.87757912      -0.88606047       1.03514360       1.00118974
O       -0.71222294      -0.88598152      -0.13549632      -2.08417673       2.55486654       0.25526418       0.96795003      -0.05285920      -0.45358160
O        1.25497048       0.52799113       0.26843273       1.68988528      -3.88760954      -0.95500563      -1.55834355      -1.90085730      -1.29909285
C        3.68093516       0.76710151       0.31098760       0.15343965       0.52876462      -1.51318525      -0.73310807      -1.65390218      -0.81877223
C        3.70025496      -0.27722303      -0.49269585       1.44381214       1.35348321       0.93143407       0.06977199       1.33183160       2.36506853
H        3.08175332       1.42507185      -0.30275762       0.26506352      -0.26867612       0.02566434      -0.24041511       1.97586908       0.00289515
H        3.53668187       0.85281265       1.43140901       0.02570512       0.34873588      -0.01762559       1.57571451       0.16947742      -0.28723243
H        0.75780530       1.39930278       0.36174722      -0.21608860      -0.61541799       0.19152878       0.66192000      -0.00926858      -0.05307760
H        4.20200341      -1.21047761      -0.61876932       0.56091295       0.28424870       0.20434599       0.14257067      -0.89543442      -0.45739671
9
Lattice="13.0 0.0 0.0 0.0 9.0 0.0 0.0 0.0 9.0" Properties=species:S:1:pos:R:3:momenta:R:3:forces:R:3 EPS_SCF=1e-06 energy=-1399.247096716616 units=gap_units Integrated_spin_density=6.55109e-05 opt_dir=/home/tks32/dft_pbe/apr_8_opt_fragments_subset/singlepoint_1_CO2 time=75.0 free_energy=-1399.247096716616 pbc="T T T"
C        0.25808117      -0.20968731      -0.05850480      -1.83855332      -0.29839531       0.87757912      -1.09057819       0.40855001       0.64322297
O       -0.70254344      -0.88651011      -0.14003214      -2.08417673       2.55486654       0.25526418       0.12350089      -0.49336928      -0.54500928
O        1.23938704       0.50898256       0.25544180       1.68988528      -3.88760954      -0.95500563      -0.28500244      -0.99768507      -0.83798894
C        3.67360408       0.75056249       0.30279988       0.15343965       0.52876462      -1.51318525      -0.98300512      -1.49673324      -1.02419670
C        3.70095268      -0.26390471      -0.46904516       1.44381214       1.35348321       0.93143407       0.37332372       0.71855426       2.31192045
H        3.07934917       1.44483054      -0.30272867       0.26506352      -0.26867612       0.02566434       0.01662056       1.62354817       0.17299003
H        3.55243902       0.85450742       1.42853669       0.02570512       0.34873588      -0.01762559       1.48209331       0.17525715      -0.39306773
H        0.76442450       1.39921009       0.36121644      -0.21608860      -0.61541799       0.19152878       0.70887422       0.12121612      -0.00653116
H        4.20342912      -1.21943195      -0.62334329       0.56091295       0.28424870       0.20434599      -0.34582695      -0.05933811      -0.32133964
9
Lattice="13.0 0.0 0.0 0.0 9.0 0.0 0.0 0.0 9.0" Properties=species:S:1:pos:R:3:momenta:R:3:forces:R:3 EPS_SCF=1e-06 energy=-1399.3671875854143 units=gap_units Integrated_spin_density=6.55109e-05 opt_dir=/home/tks32/dft_pbe/apr_8_opt_fragments_subset/singlepoint_1_CO2 time=75.0 free_energy=-1399.3671875854143 pbc="T T T"
C        0.23784653      -0.19577817      -0.04226309      -1.83855332      -0.29839531       0.87757912      -1.31270655      -0.46351320       0.12606239
O       -0.69244351      -0.89253222      -0.15024127      -2.08417673       2.55486654       0.25526418      -0.96718247      -0.99455595      -0.63064358
O        1.22215800       0.48065904       0.23432944       1.68988528      -3.88760954      -0.95500563       1.24606742       0.39197590      -0.11933224
C        3.65595533       0.71885135       0.28391708       0.15343965       0.52876462      -1.51318525      -1.42460335       4.79535370       3.31815446
C        3.70577747      -0.24384037      -0.42176933       1.44381214       1.35348321       0.93143407       0.93102358      -5.92274544      -2.32091562
H        3.07737228       1.48086501      -0.30075789       0.26506352      -0.26867612       0.02566434       0.33777226       0.99442411       0.35407447
H        3.58328189       0.85800293       1.42153279       0.02570512       0.34873588      -0.01762559       1.23039850       0.15338937      -0.69627601
H        0.77835082       1.40048937       0.36066532      -0.21608860      -0.61541799       0.19152878       0.89066550       0.06660630       0.01836564
H        4.20082453      -1.22815793      -0.63107230       0.56091295       0.28424870       0.20434599      -0.93143490       0.97906521      -0.04948952
9
Lattice="13.0 0.0 0.0 0.0 9.0 0.0 0.0 0.0 9.0" Properties=species:S:1:pos:R:3:momenta:R:3:forces:R:3 EPS_SCF=1e-06 energy=-1399.5159898449392 units=gap_units Integrated_spin_density=6.55109e-05 opt_dir=/home/tks32/dft_pbe/apr_8_opt_fragments_subset/singlepoint_1_CO2 time=75.0 free_energy=-1399.5159898449392 pbc="T T T"
C        0.23456476      -0.19693696      -0.04194794      -1.83855332      -0.29839531       0.87757912      -1.00397881      -0.25854216       0.18565565
O       -0.69486147      -0.89501861      -0.15181788      -2.08417673       2.55486654       0.25526418      -0.89984819      -0.93426059      -0.60772143
O        1.22527317       0.48163898       0.23403111       1.68988528      -3.88760954      -0.95500563       0.80047831       0.16144899      -0.19275841
C        3.65239382       0.73083973       0.29221247       0.15343965       0.52876462      -1.51318525      -1.04468717       1.46988005       0.64222787
C        3.70810503      -0.25864723      -0.42757162       1.44381214       1.35348321       0.93143407       0.40791256      -2.05708033       0.13142351
H        3.07821671       1.48335107      -0.29987270       0.26506352      -0.26867612       0.02566434       0.32800392       0.97215504       0.37290068
H        3.58635788       0.85838641       1.41979210       0.02570512       0.34873588      -0.01762559       1.18843964       0.19663444      -0.40970550
H        0.78057749       1.40065588       0.36071124      -0.21608860      -0.61541799       0.19152878       0.86294843       0.02765683       0.01133275
H        4.19849594      -1.22571027      -0.63119603       0.56091295       0.28424870       0.20434599      -0.63926870       0.42210774      -0.13335512
9
Lattice="13.0 0.0 0.0 0.0 9.0 0.0 0.0 0.0 9.0" Properties=species:S:1:pos:R:3:momenta:R:3:forces:R:3 EPS_SCF=1e-06 energy=-1399.555457090818 units=gap_units Integrated_spin_density=6.55109e-05 opt_dir=/home/tks32/dft_pbe/apr_8_opt_fragments_subset/singlepoint_1_CO2 time=75.0 free_energy=-1399.555457090818 pbc="T T T"
C        0.22851040      -0.19877836      -0.04109090      -1.83855332      -0.29839531       0.87757912      -0.57409833       0.01820318       0.26700581
O       -0.69981680      -0.90014181      -0.15511377      -2.08417673       2.55486654       0.25526418      -0.70540280      -0.76744987      -0.55585920
O        1.23054909       0.48301955       0.23316728       1.68988528      -3.88760954      -0.95500563       0.08046926      -0.21540188      -0.30050135
C        3.64596197       0.74616898       0.30166183       0.15343965       0.52876462      -1.51318525      -0.56978430      -1.03872671      -1.43992056
C        3.71145966      -0.27832667      -0.43238778       1.44381214       1.35348321       0.93143407      -0.24942266       1.23470926       1.93785760
H        3.07998973       1.48859101      -0.29792434       0.26506352      -0.26867612       0.02566434       0.28937286       0.94599796       0.37075917
H        3.59279676       0.85933883       1.41696011       0.02570512       0.34873588      -0.01762559       1.11757540       0.24947927      -0.02707282
H        0.78524669       1.40089117       0.36078756      -0.21608860      -0.61541799       0.19152878       0.82101355      -0.04061428      -0.00135098
H        4.19442584      -1.22220370      -0.63171924       0.56091295       0.28424870       0.20434599      -0.20972298      -0.38619691      -0.25091767
9
Lattice="13.0 0.0 0.0 0.0 9.0 0.0 0.0 0.0 9.0" Properties=species:S:1:pos:R:3:momenta:R:3:forces:R:3 EPS_SCF=1e-06 energy=-1399.5640868166631 units=gap_units Integrated_spin_density=6.55109e-05 opt_dir=/home/tks32/dft_pbe/apr_8_opt_fragments_subset/singlepoint_1_CO2 time=75.0 free_energy=-1399.5640868166631 pbc="T T T"
C        0.22815159      -0.19876699      -0.04092402      -1.83855332      -0.29839531       0.87757912      -0.59054698       0.00076995       0.26267923
O       -0.70025767      -0.90062146      -0.15546118      -2.08417673       2.55486654       0.25526418      -0.67077742      -0.73862481      -0.54977860
O        1.23059938       0.48288493       0.23297946       1.68988528      -3.88760954      -0.95500563       0.06906183      -0.22653434      -0.29923951
C        3.64560585       0.74551978       0.30076188       0.15343965       0.52876462      -1.51318525      -0.56950924      -0.94863931      -1.33666677
C        3.71130377      -0.27755497      -0.43117662       1.44381214       1.35348321       0.93143407      -0.22323270       1.10247989       1.85793096
H        3.08017059       1.48918226      -0.29769261       0.26506352      -0.26867612       0.02566434       0.28363667       0.94850943       0.36372939
H        3.59349524       0.85949476       1.41694319       0.02570512       0.34873588      -0.01762559       1.11323067       0.24797788      -0.05537546
H        0.78575982       1.40086578       0.36078672      -0.21608860      -0.61541799       0.19152878       0.82000806      -0.04041250      -0.00139853
H        4.19429476      -1.22244507      -0.63187607       0.56091295       0.28424870       0.20434599      -0.23187088      -0.34552619      -0.24188071
9
Lattice="13.0 0.0 0.0 0.0 9.0 0.0 0.0 0.0 9.0" Properties=species:S:1:pos:R:3:momenta:R:3:forces:R:3 EPS_SCF=1e-06 energy=-1399.5798188384751 units=gap_units Integrated_spin_density=6.55109e-05 opt_dir=/home/tks32/dft_pbe/apr_8_opt_fragments_subset/singlepoint_1_CO2 time=75.0 free_energy=-1399.5798188384751 pbc="T T T"
C        0.22742097      -0.19875622      -0.04059249      -1.83855332      -0.29839531       0.87757912      -0.61979089      -0.03131795       0.25449603
O       -0.70111754      -0.90156307      -0.15615339      -2.08417673       2.55486654       0.25526418      -0.60528260      -0.68374499      -0.53805167
O        1.23069232       0.48260737       0.23260385       1.68988528      -3.88760954      -0.95500563       0.04602493      -0.24879129      -0.29672215
C        3.64489218       0.74428059       0.29902914       0.15343965       0.52876462      -1.51318525      -0.56952279      -0.75368777      -1.12416016
C        3.71100936      -0.27609934      -0.42880394       1.44381214       1.35348321       0.93143407      -0.17252415       0.82856579       1.68900440
H        3.08052917       1.49036920      -0.29723296       0.26506352      -0.26867612       0.02566434       0.27273140       0.95274555       0.35028905
H        3.59489240       0.85980628       1.41688974       0.02570512       0.34873588      -0.01762559       1.10412511       0.24506414      -0.10898531
H        0.78678774       1.40081504       0.36078499      -0.21608860      -0.61541799       0.19152878       0.81787816      -0.04006252      -0.00149026
H        4.19401672      -1.22290085      -0.63218419       0.56091295       0.28424870       0.20434599      -0.27363917      -0.26877096      -0.22437993
9
Lattice="13.0 0.0 0.0 0.0 9.0 0.0 0.0 0.0 9.0" Properties=species:S:1:pos:R:3:momenta:R:3:forces:R:3 EPS_SCF=1e-06 energy=-1399.5998114202262 units=gap_units Integrated_spin_density=6.55109e-05 opt_dir=/home/tks32/dft_pbe/apr_8_opt_fragments_subset/singlepoint_1_CO2 time=75.0 free_energy=-1399.5998114202262 pbc="T T T"
C        0.22628907      -0.19877049      -0.04009934      -1.83855332      -0.29839531       0.87757912      -0.65471913      -0.07266212       0.24335590
O       -0.70235466      -0.90293380      -0.15718817      -2.08417673       2.55486654       0.25526418      -0.51629583      -0.60824184      -0.52154891
O        1.23081119       0.48216717       0.23203871       1.68988528      -3.88760954      -0.95500563       0.01099928      -0.28216361      -0.29292140
C        3.64381401       0.74258851       0.29660933       0.15343965       0.52876462      -1.51318525      -0.57007973      -0.43587179      -0.79888911
C        3.71061236      -0.27415515      -0.42537589       1.44381214       1.35348321       0.93143407      -0.10167532       0.40611162       1.42139363
H        3.08106063       1.49216660      -0.29655118       0.26506352      -0.26867612       0.02566434       0.25776855       0.95709178       0.33164853
H        3.59699487       0.86027421       1.41675821       0.02570512       0.34873588      -0.01762559       1.08942716       0.24100894      -0.18169554
H        0.78833881       1.40073871       0.36078230      -0.21608860      -0.61541799       0.19152878       0.81430557      -0.03963175      -0.00161251
H        4.19355706      -1.22351674      -0.63263323       0.56091295       0.28424870       0.20434599      -0.32973056      -0.16564124      -0.19973060
9
Lattice="13.0 0.0 0.0 0.0 9.0 0.0 0.0 0.0 9.0" Properties=species:S:1:pos:R:3:momenta:R:3:forces:R:3 EPS_SCF=1e-06 energy=-1399.6206835088608 units=gap_units Integrated_spin_density=6.55109e-05 opt_dir=/home/tks32/dft_pbe/apr_8_opt_fragments_subset/singlepoint_1_CO2 time=75.0 free_energy=-1399.6206835088608 pbc="T T T"
C        0.22470893      -0.19884565      -0.03944682      -1.83855332      -0.29839531       0.87757912      -0.68561254      -0.11587543       0.23044867
O       -0.70391080      -0.90468904      -0.15856671      -2.08417673       2.55486654       0.25526418      -0.41429429      -0.51981982      -0.50155389
O        1.23092761       0.48152903       0.23127889       1.68988528      -3.88760954      -0.95500563      -0.03614599      -0.32650763      -0.28768653
C        3.64235480       0.74069187       0.29374644       0.15343965       0.52876462      -1.51318525      -0.56939564       0.00242535      -0.37658392
C        3.71016786      -0.27205713      -0.42107177       1.44381214       1.35348321       0.93143407      -0.01969223      -0.14502441       1.06171656
H        3.08175998       1.49460499      -0.29565319       0.26506352      -0.26867612       0.02566434       0.24032701       0.95914842       0.30953365
H        3.59982129       0.86090201       1.41648404       0.02570512       0.34873588      -0.01762559       1.06795421       0.23643455      -0.26386585
H        0.79043306       1.40063602       0.36077849      -0.21608860      -0.61541799       0.19152878       0.80865082      -0.03912118      -0.00172801
H        4.19286061      -1.22421308      -0.63320863       0.56091295       0.28424870       0.20434599      -0.39179133      -0.05165985      -0.17028069
9
Lattice="13.0 0.0 0.0 0.0 9.0 0.0 0.0 0.0 9.0" Properties=species:S:1:pos:R:3:momenta:R:3:forces:R:3 EPS_SCF=1e-06 energy=-1399.6401903670658 units=gap_units Integrated_spin_density=6.55109e-05 opt_dir=/home/tks32/dft_pbe/apr_8_opt_fragments_subset/singlepoint_1_CO2 time=75.0 free_energy=-1399.6401903670658 pbc="T T T"
C        0.22262858      -0.19902453      -0.03863831      -1.83855332      -0.29839531       0.87757912      -0.70176070      -0.15267025       0.21705035
O       -0.70570906      -0.90676781      -0.16028891      -2.08417673       2.55486654       0.25526418      -0.31220616      -0.42804838      -0.47977763
O        1.23099768       0.48064123       0.23031887       1.68988528      -3.88760954      -0.95500563      -0.09437008      -0.38098413      -0.28063543
C        3.64049486       0.73898722       0.29080830       0.15343965       0.52876462      -1.51318525      -0.56140011       0.50540624       0.08532946
C        3.70974891      -0.27030815      -0.41617876       1.44381214       1.35348321       0.93143407       0.05729775      -0.74523801       0.65581273
H        3.08262011       1.49772036      -0.29454783       0.26506352      -0.26867612       0.02566434       0.22235289       0.95599398       0.28611261
H        3.60339035       0.86169403       1.41598396       0.02570512       0.34873588      -0.01762559       1.03846245       0.23253060      -0.34231963
H        0.79309422       1.40050605       0.36077341      -0.21608860      -0.61541799       0.19152878       0.79989636      -0.03838563      -0.00176381
H        4.19185767      -1.22488939      -0.63388998       0.56091295       0.28424870       0.20434599      -0.44827240       0.05139557      -0.13980864
9
Lattice="13.0 0.0 0.0 0.0 9.0 0.0 0.0 0.0 9.0" Properties=species:S:1:pos:R:3:momenta:R:3:forces:R:3 EPS_SCF=1e-06 energy=-1399.6590565916256 units=gap_units Integrated_spin_density=6.55109e-05 opt_dir=/home/tks32/dft_pbe/apr_8_opt_fragments_subset/singlepoint_1_CO2 time=75.0 free_energy=-1399.6590565916256 pbc="T T T"
C        0.22004104      -0.19934113      -0.03768944      -1.83855332      -0.29839531       0.87757912      -0.69516876      -0.17628314       0.20419551
O       -0.70764570      -0.90907496      -0.16232787      -2.08417673       2.55486654       0.25526418      -0.22336347      -0.34311043      -0.45827291
O        1.23096457       0.47945393       0.22916883       1.68988528      -3.88760954      -0.95500563      -0.15985917      -0.44283917      -0.27116604
C        3.63824875       0.73796813       0.28825094       0.15343965       0.52876462      -1.51318525      -0.53576777       0.95052739       0.48288835
C        3.70943025      -0.26949359      -0.41110666       1.44381214       1.35348321       0.93143407       0.10722008      -1.24659852       0.29604946
H        3.08362086       1.50149853      -0.29326140       0.26506352      -0.26867612       0.02566434       0.20587472       0.94516567       0.26373009
H        3.60766089       0.86264383       1.41518500       0.02570512       0.34873588      -0.01762559       1.00053206       0.23096950      -0.40249996
H        0.79630451       1.40034995       0.36076703      -0.21608860      -0.61541799       0.19152878       0.78703103      -0.03715909      -0.00162261
H        4.19049816      -1.22544568      -0.63464568       0.56091295       0.28424870       0.20434599      -0.48649872       0.11932779      -0.11330189
9
Lattice="13.0 0.0 0.0 0.0 9.0 0.0 0.0 0.0 9.0" Properties=species:S:1:pos:R:3:momenta:R:3:forces:R:3 EPS_SCF=1e-06 energy=-1399.6804629271473 units=gap_units Integrated_spin_density=6.55109e-05 opt_dir=/home/tks32/dft_pbe/apr_8_opt_fragments_subset/singlepoint_1_CO2 time=75.0 free_energy=-1399.6804629271473 pbc="T T T"
C        0.21700690      -0.19980493      -0.03662826      -1.83855332      -0.29839531       0.87757912      -0.66415887      -0.18425139       0.19230096
O       -0.70961531      -0.91149953      -0.16462793      -2.08417673       2.55486654       0.25526418      -0.15793312      -0.27307889      -0.43881663
O        1.23077256       0.47793602       0.22785865       1.68988528      -3.88760954      -0.95500563      -0.22628993      -0.50747062      -0.25859049
C        3.63568363       0.73801542       0.28643929       0.15343965       0.52876462      -1.51318525      -0.48277188       1.20388763       0.71297724
C        3.70925225      -0.27002537      -0.40624139       1.44381214       1.35348321       0.93143407       0.11115202      -1.49888601       0.07867116
H        3.08473042       1.50585791      -0.29183602       0.26506352      -0.26867612       0.02566434       0.19318695       0.92630671       0.24405888
H        3.61251958       0.86373301       1.41405753       0.02570512       0.34873588      -0.01762559       0.95508038       0.23321847      -0.43420087
H        0.79999234       1.40017176       0.36075965      -0.21608860      -0.61541799       0.19152878       0.76966994      -0.03533075      -0.00124695
H        4.18878096      -1.22582527      -0.63544077       0.56091295       0.28424870       0.20434599      -0.49793550       0.13560485      -0.09515330
9
Lattice="13.0 0.0 0.0 0.0 9.0 0.0 0.0 0.0 9.0" Properties=species:S:1:pos:R:3:momenta:R:3:forces:R:3 EPS_SCF=1e-06 energy=-1399.7099117068715 units=gap_units Integrated_spin_density=6.55109e-05 opt_dir=/home/tks32/dft_pbe/apr_8_opt_fragments_subset/singlepoint_1_CO2 time=75.0 free_energy=-1399.7099117068715 pbc="T T T"
C        0.21321791      -0.20048193      -0.03535035      -1.83855332      -0.29839531       0.87757912      -0.60508006      -0.17637599       0.18004828
O       -0.71175194      -0.91422270      -0.16742377      -2.08417673       2.55486654       0.25526418      -0.12338852      -0.22088460      -0.42084464
O        1.23031495       0.47583334       0.22625586       1.68988528      -3.88760954      -0.95500563      -0.29292939      -0.57642645      -0.24013573
C        3.63257341       0.73948551       0.28548865       0.15343965       0.52876462      -1.51318525      -0.38689394       1.17419542       0.71344902
C        3.70920744      -0.27232385      -0.40133175       1.44381214       1.35348321       0.93143407       0.05142243      -1.39661287       0.06158009
H        3.08605728       1.51126880      -0.29013636       0.26506352      -0.26867612       0.02566434       0.19012310       0.90013282       0.22600061
H        3.61845881       0.86508701       1.41242802       0.02570512       0.34873588      -0.01762559       0.89778897       0.24104879      -0.43177789
H        0.80455322       1.39995358       0.36075086      -0.21608860      -0.61541799       0.19152878       0.74558962      -0.03291177      -0.00057946
H        4.18649226      -1.22604074      -0.63634040       0.56091295       0.28424870       0.20434599      -0.47663220       0.08783464      -0.08774028
9
Lattice="13.0 0.0 0.0 0.0 9.0 0.0 0.0 0.0 9.0" Properties=species:S:1:pos:R:3:momenta:R:3:forces:R:3 EPS_SCF=1e-06 energy=-1399.7474282290416 units=gap_units Integrated_spin_density=6.55109e-05 opt_dir=/home/tks32/dft_pbe/apr_8_opt_fragments_subset/singlepoint_1_CO2 time=75.0 free_energy=-1399.7474282290416 pbc="T T T"
C        0.20858881      -0.20140761      -0.03382381      -1.83855332      -0.29839531       0.87757912      -0.52034500      -0.15455672       0.16640563
O       -0.71404774      -0.91724063      -0.17080248      -2.08417673       2.55486654       0.25526418      -0.12025950      -0.18706424      -0.40595526
O        1.22943837       0.47291694       0.22432054       1.68988528      -3.88760954      -0.95500563      -0.34906986      -0.64277423      -0.21275953
C        3.62893214       0.74263822       0.28557680       0.15343965       0.52876462      -1.51318525      -0.24255086       0.81355242       0.45193366
C        3.70923728      -0.27661880      -0.39637689       1.44381214       1.35348321       0.93143407      -0.08326036      -0.88294091       0.27271944
H        3.08764689       1.51793146      -0.28812545       0.26506352      -0.26867612       0.02566434       0.19183766       0.86063343       0.21029383
H        3.62564172       0.86677707       1.41018945       0.02570512       0.34873588      -0.01762559       0.82794497       0.25574979      -0.38858908
H        0.81015024       1.39968982       0.36074132      -0.21608860      -0.61541799       0.19152878       0.71467466      -0.03104827       0.00026640
H        4.18353560      -1.22612745      -0.63735874       0.56091295       0.28424870       0.20434599      -0.41897171      -0.03155127      -0.09431510
9
Lattice="13.0 0.0 0.0 0.0 9.0 0.0 0.0 0.0 9.0" Properties=species:S:1:pos:R:3:momenta:R:3:forces:R:3 EPS_SCF=1e-06 energy=-1399.7879975494368 units=gap_units Integrated_spin_density=6.55109e-05 opt_dir=/home/tks32/dft_pbe/apr_8_opt_fragments_subset/singlepoint_1_CO2 time=75.0 free_energy=-1399.7879975494368 pbc="T T T"
C        0.20301198      -0.20261831      -0.03199453      -1.83855332      -0.29839531       0.87757912      -0.42071757      -0.12732289       0.14897608
O       -0.71655300      -0.92058869      -0.17492241      -2.08417673       2.55486654       0.25526418      -0.15082038      -0.17222220      -0.39510651
O        1.22790861       0.46880792       0.22199805       1.68988528      -3.88760954      -0.95500563      -0.37801030      -0.69474001      -0.17161404
C        3.62486069       0.74730462       0.28651880       0.15343965       0.52876462      -1.51318525      -0.06269476       0.23639703       0.01474866
C        3.70910947      -0.28254971      -0.39094505       1.44381214       1.35348321       0.93143407      -0.27658649      -0.08850632       0.62619499
H        3.08958683       1.52616940      -0.28573262       0.26506352      -0.26867612       0.02566434       0.20001941       0.80592345       0.19702227
H        3.63433404       0.86893752       1.40723361       0.02570512       0.34873588      -0.01762559       0.74485916       0.27695123      -0.30821913
H        0.81705489       1.39936940       0.36073236      -0.21608860      -0.61541799       0.19152878       0.67935593      -0.03315271       0.00081963
H        4.17980983      -1.22627315      -0.63854746       0.56091295       0.28424870       0.20434599      -0.33540500      -0.20332758      -0.11282195
9
Lattice="13.0 0.0 0.0 0.0 9.0 0.0 0.0 0.0 9.0" Properties=species:S:1:pos:R:3:momenta:R:3:forces:R:3 EPS_SCF=1e-06 energy=-1399.8284831190047 units=gap_units Integrated_spin_density=6.55109e-05 opt_dir=/home/tks32/dft_pbe/apr_8_opt_fragments_subset/singlepoint_1_CO2 time=75.0 free_energy=-1399.8284831190047 pbc="T T T"
C        0.19642587      -0.20413766      -0.02980689      -1.83855332      -0.29839531       0.87757912      -0.33155979      -0.11430219       0.12343658
O       -0.71941667      -0.92434274      -0.17999770      -2.08417673       2.55486654       0.25526418      -0.20583878      -0.16782091      -0.38759524
O        1.22544858       0.46299792       0.21926418       1.68988528      -3.88760954      -0.95500563      -0.35849227      -0.71508664      -0.11058070
C        3.62066065       0.75252780       0.28749116       0.15343965       0.52876462      -1.51318525       0.11348461      -0.26756967      -0.38427494
C        3.70829430      -0.28866090      -0.38399168       1.44381214       1.35348321       0.93143407      -0.46508746       0.63105955       0.91814902
H        3.09201139       1.53635718      -0.28286566       0.26506352      -0.26867612       0.02566434       0.21764128       0.73393719       0.18613391
H        3.64482120       0.87177253       1.40353075       0.02570512       0.34873588      -0.01762559       0.64807480       0.30086446      -0.21664552
H        0.82560344       1.39896865       0.36072549      -0.21608860      -0.61541799       0.19152878       0.64616615      -0.04617592       0.00000123
H        4.17527458      -1.22692378      -0.64000890       0.56091295       0.28424870       0.20434599      -0.26438853      -0.35490587      -0.12862435
9
Lattice="13.0 0.0 0.0 0.0 9.0 0.0 0.0 0.0 9.0" Properties=species:S:1:pos:R:3:momenta:R:3:forces:R:3 EPS_SCF=1e-06 energy=-1399.8743769149298 units=gap_units Integrated_spin_density=6.55109e-05 opt_dir=/home/tks32/dft_pbe/apr_8_opt_fragments_subset/singlepoint_1_CO2 time=75.0 free_energy=-1399.8743769149298 pbc="T T T"
C        0.18892752      -0.20597574      -0.02727814      -1.83855332      -0.29839531       0.87757912      -0.28256064      -0.13721915       0.08631678
O       -0.72285361      -0.92855613      -0.18615427      -2.08417673       2.55486654       0.25526418      -0.26264594      -0.15598921      -0.38018108
O        1.22197580       0.45517291       0.21622910       1.68988528      -3.88760954      -0.95500563      -0.28180114      -0.69167828      -0.02755925
C        3.61680941       0.75695510       0.28735749       0.15343965       0.52876462      -1.51318525       0.24228677      -0.43367724      -0.54558516
C        3.70615180      -0.29293020      -0.37444824       1.44381214       1.35348321       0.93143407      -0.56636454       0.91782526       0.96701117
H        3.09504552       1.54858915      -0.27948188       0.26506352      -0.26867612       0.02566434       0.24732454       0.64415834       0.17747838
H        3.65710495       0.87545312       1.39922843       0.02570512       0.34873588      -0.01762559       0.53850834       0.32116061      -0.15641947
H        0.83595409       1.39843794       0.36071867      -0.21608860      -0.61541799       0.19152878       0.62383249      -0.07860488      -0.00366921
H        4.17000785      -1.22858713      -0.64183042       0.56091295       0.28424870       0.20434599      -0.25857987      -0.38597544      -0.11739216
9
Lattice="13.0 0.0 0.0 0.0 9.0 0.0 0.0 0.0 9.0" Properties=species:S:1:pos:R:3:momenta:R:3:forces:R:3 EPS_SCF=1e-06 energy=-1399.9303913628528 units=gap_units Integrated_spin_density=6.55109e-05 opt_dir=/home/tks32/dft_pbe/apr_8_opt_fragments_subset/singlepoint_1_CO2 time=75.0 free_energy=-1399.9303913628528 pbc="T T T"
C        0.18052575      -0.20826087      -0.02447450      -1.83855332      -0.29839531       0.87757912      -0.28053895      -0.20129127       0.03978080
O       -0.72714658      -0.93326792      -0.19354450      -2.08417673       2.55486654       0.25526418      -0.30361384      -0.12297487      -0.36944595