9
Lattice="13.0 0.0 0.0 0.0 9.0 0.0 0.0 0.0 9.0" Properties=species:S:1:pos:R:3:momenta:R:3:forces:R:3 EPS_SCF=1e-06 energy=-1399.475550898794 units=gap_units Integrated_spin_density=6.55109e-05 opt_dir=/home/tks32/dft_pbe/apr_8_opt_fragments_subset/singlepoint_1_CO2 time=65.0 free_energy=-1399.475550898794 pbc="T T T"
C        0.30390835      -0.14954323      -0.07786832       0.74494469      -1.47498520      -0.57663261      -0.81673958       1.81076685       1.31201593
O       -0.48361315      -1.02637868      -0.16238233      -5.35157916       1.74973118       0.87583515       1.41513238       0.64029212      -0.52205309
O        1.13777409       0.71844999       0.28995605       1.49693089      -1.99942738      -0.19525842       0.47316683      -1.39447645      -0.58645930
C        3.62108165       0.67488090       0.33165562       1.07978784       2.09160273       0.49727749       0.35772653      -2.17711941      -0.68732224
C        3.56863285      -0.34152787      -0.47926743       1.81616457       0.33030697      -1.25473788      -0.47491738       1.98757901       1.43345402
H        3.22242329       1.65239899       0.12460141      -0.22449762      -0.38263457      -0.50226794      -0.39447705       0.50021810      -0.53562542
H        3.98022129       0.64265688       1.38259648      -0.54186581       0.16297548       0.48820618      -0.24259297      -0.00230166      -0.15356115
H        1.01702973       1.73473650       0.06692334      -0.06041522      -0.15412352       0.52241531      -0.26614951      -1.42043602      -0.24103948
H        3.43129302      -1.33255858      -0.91222647       1.04052982      -0.32344570       0.14516272      -0.05114924       0.05547747      -0.01940927
9
Lattice="13.0 0.0 0.0 0.0 9.0 0.0 0.0 0.0 9.0" Properties=species:S:1:pos:R:3:momenta:R:3:forces:R:3 EPS_SCF=1e-06 energy=-1399.680515070583 units=gap_units Integrated_spin_density=6.55109e-05 opt_dir=/home/tks32/dft_pbe/apr_8_opt_fragments_subset/singlepoint_1_CO2 time=65.0 free_energy=-1399.680515070583 pbc="T T T"
C        0.29574095      -0.13143556      -0.06474816       0.74494469      -1.47498520      -0.57663261      -0.99670049       0.94021978       0.93496495
O       -0.46946183      -1.01997576      -0.16760286      -5.35157916       1.74973118       0.87583515       0.87311701       0.36671235      -0.51781277
O        1.14250576       0.70450523       0.28409146       1.49693089      -1.99942738      -0.19525842       1.12120223      -0.52728397      -0.23628667
C        3.62465892       0.65310971       0.32478240       1.07978784       2.09160273       0.49727749       0.00964527      -0.69891689      -0.41343245
C        3.56388368      -0.32165208      -0.46493289       1.81616457       0.33030697      -1.25473788      -0.56227517       0.53750710       0.63800576
H        3.21847852       1.65740117       0.11924516      -0.22449762      -0.38263457      -0.50226794      -0.05234372      -0.22084860      -0.41108272
H        3.97779536       0.64263386       1.38106087      -0.54186581       0.16297548       0.48820618      -0.26509617      -0.06261902      -0.12197821
H        1.01436823       1.72053214       0.06451295      -0.06041522      -0.15412352       0.52241531      -0.17220500      -1.17000406      -0.17491833
H        3.43078153      -1.33200381      -0.91242056       1.04052982      -0.32344570       0.14516272       0.04465605       0.83523331       0.30254044
9
Lattice="13.0 0.0 0.0 0.0 9.0 0.0 0.0 0.0 9.0" Properties=species:S:1:pos:R:3:momenta:R:3:forces:R:3 EPS_SCF=1e-06 energy=-1399.6862615967912 units=gap_units Integrated_spin_density=6.55109e-05 opt_dir=/home/tks32/dft_pbe/apr_8_opt_fragments_subset/singlepoint_1_CO2 time=65.0 free_energy=-1399.6862615967912 pbc="T T T"
C        0.27681234      -0.10421679      -0.04207919       0.74494469      -1.47498520      -0.57663261      -0.58196528       0.29247723       0.53250007
O       -0.44658325      -1.00995329      -0.17831640      -5.35157916       1.74973118       0.87583515      -0.21718475      -0.30220902      -0.52024683
O        1.15978847       0.68582985       0.27606855       1.49693089      -1.99942738      -0.19525842       1.55899473       0.26591622       0.14884152
C        3.62799050       0.62539681       0.31379395       1.07978784       2.09160273       0.49727749       0.11169070       4.95280030       3.42928805
C        3.55307787      -0.29752003      -0.44462054       1.81616457       0.33030697      -1.25473788      -0.85092232      -5.00578328      -3.56927178
H        3.21432019       1.65933769       0.10964927      -0.22449762      -0.38263457      -0.50226794       0.26605067      -0.83755147      -0.32357095
H        3.97253259       0.64188575       1.37826188      -0.54186581       0.16297548       0.48820618      -0.33814350      -0.12527934      -0.16814694
H        1.00997251       1.69415711       0.06031169      -0.06041522      -0.15412352       0.52241531      -0.02913414      -0.66802208      -0.07298817
H        3.43083992      -1.32180220      -0.90908085       1.04052982      -0.32344570       0.14516272       0.08061389       1.42765144       0.54359503
9
Lattice="13.0 0.0 0.0 0.0 9.0 0.0 0.0 0.0 9.0" Properties=species:S:1:pos:R:3:momenta:R:3:forces:R:3 EPS_SCF=1e-06 energy=-1399.8179240181755 units=gap_units Integrated_spin_density=6.55109e-05 opt_dir=/home/tks32/dft_pbe/apr_8_opt_fragments_subset/singlepoint_1_CO2 time=65.0 free_energy=-1399.8179240181755 pbc="T T T"
C        0.27535742      -0.10348560      -0.04074794       0.74494469      -1.47498520      -0.57663261      -0.45782604       0.34559306       0.54340107
O       -0.44712622      -1.01070882      -0.17961702      -5.35157916       1.74973118       0.87583515      -0.14113569      -0.20865486      -0.49408164
O        1.16368596       0.68649464       0.27644065       1.49693089      -1.99942738      -0.19525842       1.35048212       0.09780283       0.10533178
C        3.62826972       0.63777881       0.32236717       1.07978784       2.09160273       0.49727749      -0.10406315       1.60909345       0.71755994
C        3.55095056      -0.31003449      -0.45354372       1.81616457       0.33030697      -1.25473788      -0.50764218      -1.31565782      -0.78443326
H        3.21498531       1.65724381       0.10884034      -0.22449762      -0.38263457      -0.50226794       0.19251859      -0.63858080      -0.30946903
H        3.97168723       0.64157255       1.37784152      -0.54186581       0.16297548       0.48820618      -0.27307424      -0.08530688       0.00389953
H        1.00989967       1.69248705       0.06012922      -0.06041522      -0.15412352       0.52241531      -0.05035896      -0.63196833      -0.07636709
H        3.43104146      -1.31823307      -0.90772186       1.04052982      -0.32344570       0.14516272      -0.00890043       0.82767935       0.29415870
9
Lattice="13.0 0.0 0.0 0.0 9.0 0.0 0.0 0.0 9.0" Properties=species:S:1:pos:R:3:momenta:R:3:forces:R:3 EPS_SCF=1e-06 energy=-1399.8295833099617 units=gap_units Integrated_spin_density=6.55109e-05 opt_dir=/home/tks32/dft_pbe/apr_8_opt_fragments_subset/singlepoint_1_CO2 time=65.0 free_energy=-1399.8295833099617 pbc="T T T"
C        0.27257987      -0.10171930      -0.03780727       0.74494469      -1.47498520      -0.57663261      -0.23976247       0.41006248       0.55354096
O       -0.44806747      -1.01205789      -0.18237197      -5.35157916       1.74973118       0.87583515       0.00123303      -0.01466753      -0.43833519
O        1.17152434       0.68740658       0.27711332       1.49693089      -1.99942738      -0.19525842       0.96608819      -0.19820606       0.02981112
C        3.62818732       0.65408256       0.33238410       1.07978784       2.09160273       0.49727749      -0.18662841      -0.98669050      -1.23761158
C        3.54740811      -0.32551648      -0.46409006       1.81616457       0.33030697      -1.25473788      -0.19044049       1.72228923       1.34382472
H        3.21620128       1.65331156       0.10711992      -0.22449762      -0.38263457      -0.50226794       0.05611677      -0.29090087      -0.31779663
H        3.97005073       0.64101711       1.37747569      -0.54186581       0.16297548       0.48820618      -0.19343473      -0.03574260       0.20566684
H        1.00967263       1.68895744       0.05972010      -0.06041522      -0.15412352       0.52241531      -0.07722476      -0.57203847      -0.07634394
H        3.43119430      -1.31236670      -0.90555548       1.04052982      -0.32344570       0.14516272      -0.13594715      -0.03410569      -0.06275629
9
Lattice="13.0 0.0 0.0 0.0 9.0 0.0 0.0 0.0 9.0" Properties=species:S:1:pos:R:3:momenta:R:3:forces:R:3 EPS_SCF=1e-06 energy=-1399.8354580389605 units=gap_units Integrated_spin_density=6.55109e-05 opt_dir=/home/tks32/dft_pbe/apr_8_opt_fragments_subset/singlepoint_1_CO2 time=65.0 free_energy=-1399.8354580389605 pbc="T T T"
C        0.27243002      -0.10146301      -0.03746131       0.74494469      -1.47498520      -0.57663261      -0.23567912       0.39979635       0.55007992
O       -0.44806670      -1.01206706      -0.18264593      -5.35157916       1.74973118       0.87583515       0.00812150       0.00155315      -0.43322959
O        1.17212815       0.68728271       0.27713195       1.49693089      -1.99942738      -0.19525842       0.94825778      -0.20697778       0.02821313
C        3.62807068       0.65346588       0.33161059       1.07978784       2.09160273       0.49727749      -0.16958496      -0.90603816      -1.14871734
C        3.54728908      -0.32444005      -0.46325017       1.81616457       0.33030697      -1.25473788      -0.19844318       1.59294794       1.25629500
H        3.21623636       1.65312975       0.10692130      -0.22449762      -0.38263457      -0.50226794       0.05595720      -0.29005414      -0.32057013
H        3.96992983       0.64099477       1.37760423      -0.54186581       0.16297548       0.48820618      -0.20200065      -0.03618416       0.18394884
H        1.00962437       1.68859992       0.05967239      -0.06041522      -0.15412352       0.52241531      -0.07566663      -0.56983706      -0.07460835
H        3.43110933      -1.31238801      -0.90559470       1.04052982      -0.32344570       0.14516272      -0.13096195       0.01479386      -0.04141147
9
Lattice="13.0 0.0 0.0 0.0 9.0 0.0 0.0 0.0 9.0" Properties=species:S:1:pos:R:3:momenta:R:3:forces:R:3 EPS_SCF=1e-06 energy=-1399.8458302032586 units=gap_units Integrated_spin_density=6.55109e-05 opt_dir=/home/tks32/dft_pbe/apr_8_opt_fragments_subset/singlepoint_1_CO2 time=65.0 free_energy=-1399.8458302032586 pbc="T T T"
C        0.27213222      -0.10095596      -0.03676966       0.74494469      -1.47498520      -0.57663261      -0.22717392       0.37992448       0.54312059
O       -0.44806039      -1.01207423      -0.18319199      -5.35157916       1.74973118       0.87583515       0.02113592       0.03280011      -0.42322408
O        1.17332713       0.68702813       0.27716822       1.49693089      -1.99942738      -0.19525842       0.91306598      -0.22392478       0.02517039
C        3.62784846       0.65228450       0.33012029       1.07978784       2.09160273       0.49727749      -0.13509305      -0.73077630      -0.96162360
C        3.54704477      -0.32237001      -0.46162576       1.81616457       0.33030697      -1.25473788      -0.21500254       1.32512352       1.07200585
H        3.21630661       1.65276559       0.10652092      -0.22449762      -0.38263457      -0.50226794       0.05550955      -0.28777670      -0.32594240
H        3.96968138       0.64094965       1.37784709      -0.54186581       0.16297548       0.48820618      -0.21817046      -0.03705675       0.14268813
H        1.00952862       1.68788420       0.05957787      -0.06041522      -0.15412352       0.52241531      -0.07255964      -0.56543331      -0.07115212
H        3.43094232      -1.31239697      -0.90565863       1.04052982      -0.32344570       0.14516272      -0.12171182       0.10711974      -0.00104278
9
Lattice="13.0 0.0 0.0 0.0 9.0 0.0 0.0 0.0 9.0" Properties=species:S:1:pos:R:3:momenta:R:3:forces:R:3 EPS_SCF=1e-06 energy=-1399.8580968833046 units=gap_units Integrated_spin_density=6.55109e-05 opt_dir=/home/tks32/dft_pbe/apr_8_opt_fragments_subset/singlepoint_1_CO2 time=65.0 free_energy=-1399.8580968833046 pbc="T T T"
C        0.27168883      -0.10020633      -0.03572790       0.74494469      -1.47498520      -0.57663261      -0.21354891       0.35164751       0.53252236
O       -0.44803840      -1.01205537      -0.18401017      -5.35157916       1.74973118       0.87583515       0.03876947       0.07676006      -0.40869876
O        1.17511106       0.68662614       0.27722030       1.49693089      -1.99942738      -0.19525842       0.86134346      -0.24787165       0.02099579
C        3.62754418       0.65065712       0.32803669       1.07978784       2.09160273       0.49727749      -0.08300706      -0.44299555      -0.66570173
C        3.54665892      -0.31948404      -0.45933624       1.81616457       0.33030697      -1.25473788      -0.24040601       0.91062162       0.78056454
H        3.21641268       1.65221570       0.10590896      -0.22449762      -0.38263457      -0.50226794       0.05445414      -0.28270657      -0.33355194
H        3.96928935       0.64088044       1.37817581      -0.54186581       0.16297548       0.48820618      -0.23999128      -0.03825680       0.08631423
H        1.00938643       1.68680357       0.05943787      -0.06041522      -0.15412352       0.52241531      -0.06791931      -0.55876835      -0.06599476
H        3.43069806      -1.31232234      -0.90571697       1.04052982      -0.32344570       0.14516272      -0.10969449       0.23156973       0.05355028
9
Lattice="13.0 0.0 0.0 0.0 9.0 0.0 0.0 0.0 9.0" Properties=species:S:1:pos:R:3:momenta:R:3:forces:R:3 EPS_SCF=1e-06 energy=-1399.8690608863358 units=gap_units Integrated_spin_density=6.55109e-05 opt_dir=/home/tks32/dft_pbe/apr_8_opt_fragments_subset/singlepoint_1_CO2 time=65.0 free_energy=-1399.8690608863358 pbc="T T T"
C        0.27110047      -0.09921991      -0.03431822       0.74494469      -1.47498520      -0.57663261      -0.19375873       0.31644860       0.51791190
O       -0.44798423      -1.01197035      -0.18510885      -5.35157916       1.74973118       0.87583515       0.05882023       0.13015007      -0.39015025
O        1.17748022       0.68604461       0.27728578       1.49693089      -1.99942738      -0.19525842       0.79411820      -0.27707064       0.01618098
C        3.62719674       0.64879976       0.32557128       1.07978784       2.09160273       0.49727749      -0.01488286      -0.04165250      -0.26559722
C        3.54609852      -0.31607936      -0.45658368       1.81616457       0.33030697      -1.25473788      -0.27295148       0.36310990       0.38710328
H        3.21655643       1.65147017       0.10506250      -0.22449762      -0.38263457      -0.50226794       0.05215825      -0.27232164      -0.34281507
H        3.96872376       0.64078423       1.37854818      -0.54186581       0.16297548       0.48820618      -0.26445226      -0.03941727       0.02170296
H        1.00919825       1.68533563       0.05925337      -0.06041522      -0.15412352       0.52241531      -0.06176235      -0.54962072      -0.05914633
H        3.43038097      -1.31204988      -0.90572201       1.04052982      -0.32344570       0.14516272      -0.09728900       0.37037420       0.11480975
9
Lattice="13.0 0.0 0.0 0.0 9.0 0.0 0.0 0.0 9.0" Properties=species:S:1:pos:R:3:momenta:R:3:forces:R:3 EPS_SCF=1e-06 energy=-1399.8764898700542 units=gap_units Integrated_spin_density=6.55109e-05 opt_dir=/home/tks32/dft_pbe/apr_8_opt_fragments_subset/singlepoint_1_CO2 time=65.0 free_energy=-1399.8764898700542 pbc="T T T"
C        0.27036795      -0.09800061      -0.03250693       0.74494469      -1.47498520      -0.57663261      -0.16660569       0.27598650       0.49859248
O       -0.44787386      -1.01175747      -0.18650640      -5.35157916       1.74973118       0.87583515       0.07824201       0.18844664      -0.36826019
O        1.18044440       0.68523096       0.27736167       1.49693089      -1.99942738      -0.19525842       0.71301905      -0.30891494       0.01150739
C        3.62686845       0.64708449       0.32307416       1.07978784       2.09160273       0.49727749       0.06315799       0.42261599       0.19048469
C        3.54530821      -0.31263475      -0.45370083       1.81616457       0.33030697      -1.25473788      -0.30597041      -0.24588556      -0.05945991
H        3.21674044       1.65051390       0.10394153      -0.22449762      -0.38263457      -0.50226794       0.04753296      -0.25247582      -0.35278062
H        3.96793768       0.64065635       1.37890605      -0.54186581       0.16297548       0.48820618      -0.28724790      -0.03963022      -0.04102411
H        1.00896418       1.68343868       0.05902535      -0.06041522      -0.15412352       0.52241531      -0.05412939      -0.53752828      -0.05063872
H        3.42999367      -1.31141664      -0.90560626       1.04052982      -0.32344570       0.14516272      -0.08799862       0.49738569       0.17157898
9
Lattice="13.0 0.0 0.0 0.0 9.0 0.0 0.0 0.0 9.0" Properties=species:S:1:pos:R:3:momenta:R:3:forces:R:3 EPS_SCF=1e-06 energy=-1399.8811909814833 units=gap_units Integrated_spin_density=6.55109e-05 opt_dir=/home/tks32/dft_pbe/apr_8_opt_fragments_subset/singlepoint_1_CO2 time=65.0 free_energy=-1399.8811909814833 pbc="T T T"
C        0.26952488      -0.09659878      -0.03032672       0.74494469      -1.47498520      -0.57663261      -0.13255074       0.23291244       0.47445748
O       -0.44768821      -1.01135799      -0.18817045      -5.35157916       1.74973118       0.87583515       0.09333499       0.24496862      -0.34456703
O        1.18389877       0.68415788       0.27744266       1.49693089      -1.99942738      -0.19525842       0.62342749      -0.33924925       0.00811681
C        3.62664266       0.64600698       0.32103690       1.07978784       2.09160273       0.49727749       0.13754241       0.82523826       0.59221202
C        3.54425938      -0.30980585      -0.45117186       1.81616457       0.33030697      -1.25473788      -0.32697039      -0.76609289      -0.44868328
H        3.21695849       1.64937472       0.10254348      -0.22449762      -0.38263457      -0.50226794       0.03958467      -0.21948479      -0.36196614
H        3.96691332       0.64049753       1.37918287      -0.54186581       0.16297548       0.48820618      -0.30338891      -0.03758258      -0.08922377
H        1.00869380       1.68113842       0.05876427      -0.06041522      -0.15412352       0.52241531      -0.04533379      -0.52241801      -0.04087676
H        3.42954802      -1.31029802      -0.90531280       1.04052982      -0.32344570       0.14516272      -0.08564573       0.58170820       0.21053068
9
Lattice="13.0 0.0 0.0 0.0 9.0 0.0 0.0 0.0 9.0" Properties=species:S:1:pos:R:3:momenta:R:3:forces:R:3 EPS_SCF=1e-06 energy=-1399.8865496045328 units=gap_units Integrated_spin_density=6.55109e-05 opt_dir=/home/tks32/dft_pbe/apr_8_opt_fragments_subset/singlepoint_1_CO2 time=65.0 free_energy=-1399.8865496045328 pbc="T T T"
C        0.26863304      -0.09510329      -0.02788819       0.74494469      -1.47498520      -0.57663261      -0.09403907       0.18992012       0.44641733
O       -0.44742742      -1.01075252      -0.19001404      -5.35157916       1.74973118       0.87583515       0.10155613       0.29387265      -0.32092784
O        1.18763360       0.68285152       0.27752370       1.49693089      -1.99942738      -0.19525842       0.53256615      -0.36424033       0.00684327
C        3.62657755       0.64586573       0.31979792       1.07978784       2.09160273       0.49727749       0.19479887       1.04697675       0.83610125
C        3.54298717      -0.30802898      -0.44934625       1.81616457       0.33030697      -1.25473788      -0.32559132      -1.06220073      -0.67790114
H        3.21719448       1.64812911       0.10092182      -0.22449762      -0.38263457      -0.50226794       0.02836147      -0.17338804      -0.36915685
H        3.96568680       0.64031687       1.37934244      -0.54186581       0.16297548       0.48820618      -0.30997028      -0.03247630      -0.11503859
H        1.00840495       1.67854370       0.05848826      -0.06041522      -0.15412352       0.52241531      -0.03578950      -0.50495504      -0.03052303
H        3.42906095      -1.30870724      -0.90483732       1.04052982      -0.32344570       0.14516272      -0.09189245       0.60649094       0.22418559
9
Lattice="13.0 0.0 0.0 0.0 9.0 0.0 0.0 0.0 9.0" Properties=species:S:1:pos:R:3:momenta:R:3:forces:R:3 EPS_SCF=1e-06 energy=-1399.8963668636823 units=gap_units Integrated_spin_density=6.55109e-05 opt_dir=/home/tks32/dft_pbe/apr_8_opt_fragments_subset/singlepoint_1_CO2 time=65.0 free_energy=-1399.8963668636823 pbc="T T T"
C        0.26764619      -0.09341285      -0.02498065       0.74494469      -1.47498520      -0.57663261      -0.04869965       0.14426695       0.41176701
O       -0.44705700      -1.00982831      -0.19219388      -5.35157916       1.74973118       0.87583515       0.10078033       0.33495433      -0.29631247
O        1.19191968       0.68115565       0.27761150       1.49693089      -1.99942738      -0.19525842       0.43660910      -0.38285477       0.00850767
C        3.62672837       0.64688302       0.31949541       1.07978784       2.09160273       0.49727749       0.22925701       1.01424104       0.86404984
C        3.54136783      -0.30744383      -0.44828812       1.81616457       0.33030697      -1.25473788      -0.29235733      -1.05513569      -0.68838331
H        3.21745945       1.64670432       0.09890839      -0.22449762      -0.38263457      -0.50226794       0.01286851      -0.10932180      -0.37411160
H        3.96412997       0.64010212       1.37937326      -0.54186581       0.16297548       0.48820618      -0.30515591      -0.02299669      -0.11438578
H        1.00807943       1.67541685       0.05818127      -0.06041522      -0.15412352       0.52241531      -0.02446656      -0.48357897      -0.01886815
H        3.42847719      -1.30646206      -0.90411882       1.04052982      -0.32344570       0.14516272      -0.10883551       0.56042559       0.20773680
9
Lattice="13.0 0.0 0.0 0.0 9.0 0.0 0.0 0.0 9.0" Properties=species:S:1:pos:R:3:momenta:R:3:forces:R:3 EPS_SCF=1e-06 energy=-1399.910903067392 units=gap_units Integrated_spin_density=6.55109e-05 opt_dir=/home/tks32/dft_pbe/apr_8_opt_fragments_subset/singlepoint_1_CO2 time=65.0 free_energy=-1399.910903067392 pbc="T T T"
C        0.26660406      -0.09154767      -0.02155731       0.74494469      -1.47498520      -0.57663261       0.00261463       0.09685014       0.36971054
O       -0.44655729      -1.00847168      -0.19474414      -5.35157916       1.74973118       0.87583515       0.08629996       0.36198875      -0.27194322
O        1.19674199       0.67897122       0.27770970       1.49693089      -1.99942738      -0.19525842       0.34055438      -0.39059712       0.01463830
C        3.62717945       0.64922554       0.32033227       1.07978784       2.09160273       0.49727749       0.23247999       0.68153005       0.63307281
C        3.53937830      -0.30825197      -0.44814500       1.81616457       0.33030697      -1.25473788      -0.22107701      -0.68716973      -0.43908394
H        3.21773899       1.64514839       0.09642072      -0.22449762      -0.38263457      -0.50226794      -0.00612018      -0.02777948      -0.37586594
H        3.96218554       0.63985902       1.37925333      -0.54186581       0.16297548       0.48820618      -0.28626747      -0.00851048      -0.08040459
H        1.00772462       1.67168166       0.05785220      -0.06041522      -0.15412352       0.52241531      -0.01062846      -0.45796913      -0.00592831
H        3.42775545      -1.30349961      -0.90313343       1.04052982      -0.32344570       0.14516272      -0.13785585       0.43165700       0.15580435
9
Lattice="13.0 0.0 0.0 0.0 9.0 0.0 0.0 0.0 9.0" Properties=species:S:1:pos:R:3:momenta:R:3:forces:R:3 EPS_SCF=1e-06 energy=-1399.9255701073953 units=gap_units Integrated_spin_density=6.55109e-05 opt_dir=/home/tks32/dft_pbe/apr_8_opt_fragments_subset/singlepoint_1_CO2 time=65.0 free_energy=-1399.9255701073953 pbc="T T T"
C        0.26557461      -0.08952855      -0.01751742       0.74494469      -1.47498520      -0.57663261       0.05831207       0.04818640       0.31898593
O       -0.44591133      -1.00649581      -0.19774764      -5.35157916       1.74973118       0.87583515       0.05096447       0.36673964      -0.24935407
O        1.20211918       0.67612424       0.27783261       1.49693089      -1.99942738      -0.19525842       0.25145606      -0.38153810       0.02771196
C        3.62803151       0.65273558       0.32226411       1.07978784       2.09160273       0.49727749       0.20411516       0.12494612       0.19479849
C        3.53701965      -0.31024942      -0.44876698       1.81616457       0.33030697      -1.25473788      -0.11656293      -0.03152225       0.01252767
H        3.21800570       1.64355629       0.09329850      -0.22449762      -0.38263457      -0.50226794      -0.02515183       0.06493968      -0.37327774
H        3.95975822       0.63960302       1.37899445      -0.54186581       0.16297548       0.48820618      -0.25205585       0.01054668      -0.01006115
H        1.00735409       1.66717880       0.05751538      -0.06041522      -0.15412352       0.52241531       0.00723328      -0.42741963       0.00850886
H        3.42679948      -1.29980924      -0.90188465       1.04052982      -0.32344570       0.14516272      -0.17831041       0.22512146       0.07016003
9
Lattice="13.0 0.0 0.0 0.0 9.0 0.0 0.0 0.0 9.0" Properties=species:S:1:pos:R:3:momenta:R:3:forces:R:3 EPS_SCF=1e-06 energy=-1399.935583327613 units=gap_units Integrated_spin_density=6.55109e-05 opt_dir=/home/tks32/dft_pbe/apr_8_opt_fragments_subset/singlepoint_1_CO2 time=65.0 free_energy=-1399.935583327613 pbc="T T T"
C        0.26470361      -0.08739782      -0.01267593       0.74494469      -1.47498520      -0.57663261       0.11337375      -0.00311872       0.25736976
O       -0.44513730      -1.00358036      -0.20137880      -5.35157916       1.74973118       0.87583515      -0.01572064       0.33865774      -0.23042098
O        1.20811351       0.67230509       0.27802669       1.49693089      -1.99942738      -0.19525842       0.18094433      -0.34769466       0.05222364
C        3.62940818       0.65654662       0.32468908       1.07978784       2.09160273       0.49727749       0.15537124      -0.41147486      -0.27026345
C        3.53437402      -0.31231533      -0.44935223       1.81616457       0.33030697      -1.25473788      -0.00162917       0.64108904       0.46978245
H        3.21820527       1.64214363       0.08922742      -0.22449762      -0.38263457      -0.50226794      -0.03395374       0.14820586      -0.36400056
H        3.95669233       0.63937614       1.37871116      -0.54186581       0.16297548       0.48820618      -0.20576641       0.03185511       0.08749134
H        1.00700485       1.66159572       0.05720294      -0.06041522      -0.15412352       0.52241531       0.03168890      -0.39021508       0.02489577
H        3.42538666      -1.29555880      -0.90046198       1.04052982      -0.32344570       0.14516272      -0.22430826      -0.00730444      -0.02707796
9
Lattice="13.0 0.0 0.0 0.0 9.0 0.0 0.0 0.0 9.0" Properties=species:S:1:pos:R:3:momenta:R:3:forces:R:3 EPS_SCF=1e-06 energy=-1399.9444224424722 units=gap_units Integrated_spin_density=6.55109e-05 opt_dir=/home/tks32/dft_pbe/apr_8_opt_fragments_subset/singlepoint_1_CO2 time=65.0 free_energy=-1399.9444224424722 pbc="T T T"
C        0.26415618      -0.08528792      -0.00713852       0.74494469      -1.47498520      -0.57663261       0.15705856      -0.06215667       0.18632726
O       -0.44441184      -0.99972961      -0.20563700      -5.35157916       1.74973118       0.87583515      -0.10782308       0.28596177      -0.21453667
O        1.21458244       0.66753036       0.27836646       1.49693089      -1.99942738      -0.19525842       0.13354495      -0.29316590       0.08869741
C        3.63121372       0.65917961       0.32634071       1.07978784       2.09160273       0.49727749       0.11110717      -0.64658809      -0.53143745
C        3.53173880      -0.31256772      -0.44861380       1.81616457       0.33030697      -1.25473788       0.08824879       0.97369888       0.68780931
H        3.21830827       1.64115552       0.08415637      -0.22449762      -0.38263457      -0.50226794      -0.02138824       0.19563561      -0.34746849
H        3.95306550       0.63924008       1.37867537      -0.54186581       0.16297548       0.48820618      -0.16087089       0.05135243       0.17701826
H        1.00674665       1.65494754       0.05696223      -0.06041522      -0.15412352       0.52241531       0.06297249      -0.34704451       0.04263662
H        3.42335140      -1.29135296      -0.89912348       1.04052982      -0.32344570       0.14516272      -0.26284975      -0.15769353      -0.08904625
9
Lattice="13.0 0.0 0.0 0.0 9.0 0.0 0.0 0.0 9.0" Properties=species:S:1:pos:R:3:momenta:R:3:forces:R:3 EPS_SCF=1e-06 energy=-1399.9583776448862 units=gap_units Integrated_spin_density=6.55109e-05 opt_dir=/home/tks32/dft_pbe/apr_8_opt_fragments_subset/singlepoint_1_CO2 time=65.0 free_energy=-1399.9583776448862 pbc="T T T"
C        0.26407541      -0.08337143      -0.00107601       0.74494469      -1.47498520      -0.57663261       0.17908048      -0.13416085       0.10757004
O       -0.44400835      -0.99505155      -0.21050956      -5.35157916       1.74973118       0.87583515      -0.21115802       0.22454873      -0.19946696