9
Lattice="13.0 0.0 0.0 0.0 9.0 0.0 0.0 0.0 9.0" Properties=species:S:1:pos:R:3:momenta:R:3:forces:R:3 EPS_SCF=1e-06 energy=-1399.1890151575642 units=gap_units Integrated_spin_density=6.55109e-05 opt_dir=/home/tks32/dft_pbe/apr_8_opt_fragments_subset/singlepoint_1_CO2 time=60.0 free_energy=-1399.1890151575642 pbc="T T T"
C        0.27060490      -0.07433893      -0.03981377       0.78033896      -2.00530505      -1.12746935      -0.19993919      -0.81385553       0.33743032
O       -0.30990549      -1.08116132      -0.19255111      -5.80370321       2.05749461       0.81227059      -0.84575109       0.07863920      -0.32462337
O        1.09249326       0.77023119       0.29343301       1.38293738      -1.64515584      -0.14039356       1.40694942      -0.09185489       0.02098680
C        3.58022779       0.59379642       0.30099945       0.79534822       1.11180849       0.57583317       1.61293349       6.84234598       5.12014445
C        3.48238929      -0.34300318      -0.42163986       2.64091091       0.54924985      -0.86729830      -2.39990495      -5.52049979      -4.76770682
H        3.29692712       1.72251069       0.27796713      -0.08280224       0.22018502      -0.16286257      -0.35811227      -1.54199509      -0.84723548
H        4.22936972       0.54610504       1.22711065      -0.40570651       0.25370967       0.20956068      -0.45343674      -0.14945635      -0.12932630
H        1.04247278       1.68887014      -0.18323021      -0.10687573       0.15235281       0.51978462       0.43748321      -0.01097825      -0.09878555
H        2.95508857      -1.12496759      -1.01112773       0.79955222      -0.69433957       0.18057470       0.79977812       1.20765471       0.68911596
9
Lattice="13.0 0.0 0.0 0.0 9.0 0.0 0.0 0.0 9.0" Properties=species:S:1:pos:R:3:momenta:R:3:forces:R:3 EPS_SCF=1e-06 energy=-1399.2540567785484 units=gap_units Integrated_spin_density=6.55109e-05 opt_dir=/home/tks32/dft_pbe/apr_8_opt_fragments_subset/singlepoint_1_CO2 time=60.0 free_energy=-1399.2540567785484 pbc="T T T"
C        0.26860551      -0.08247749      -0.03643947       0.78033896      -2.00530505      -1.12746935       0.56845607       0.30970329       0.55661690
O       -0.31836300      -1.08037493      -0.19579734      -5.80370321       2.05749461       0.81227059      -0.78760745      -0.09207566      -0.31376189
O        1.10656275       0.76931264       0.29364288       1.38293738      -1.64515584      -0.14039356       0.62681292      -0.63787159      -0.21742628
C        3.59635712       0.66221988       0.35220089       0.79534822       1.11180849       0.57583317       0.04189410      -1.92834169      -1.29835415
C        3.45839024      -0.39820818      -0.46931693       2.64091091       0.54924985      -0.86729830       0.65545531       4.12564472       2.75726295
H        3.29334600       1.70709074       0.26949478      -0.08280224       0.22018502      -0.16286257      -0.63974281      -0.14715410      -0.69280813
H        4.22483535       0.54461048       1.22581739      -0.40570651       0.25370967       0.20956068       0.15849547       0.02434357       0.54688286
H        1.04684761       1.68876036      -0.18421807      -0.10687573       0.15235281       0.51978462       0.38439472      -0.18917902      -0.02613995
H        2.96308635      -1.11289104      -1.00423657       0.79955222      -0.69433957       0.18057470      -1.00815833      -1.46506951      -1.31227231
9
Lattice="13.0 0.0 0.0 0.0 9.0 0.0 0.0 0.0 9.0" Properties=species:S:1:pos:R:3:momenta:R:3:forces:R:3 EPS_SCF=1e-06 energy=-1399.3398066414331 units=gap_units Integrated_spin_density=6.55109e-05 opt_dir=/home/tks32/dft_pbe/apr_8_opt_fragments_subset/singlepoint_1_CO2 time=60.0 free_energy=-1399.3398066414331 pbc="T T T"
C        0.27002665      -0.08170323      -0.03504792       0.78033896      -2.00530505      -1.12746935       0.36935505       0.01211045       0.47669788
O       -0.32033202      -1.08060512      -0.19658175      -5.80370321       2.05749461       0.81227059      -0.65986705       0.14021818      -0.26659923
O        1.10812979       0.76771796       0.29309931       1.38293738      -1.64515584      -0.14039356       0.69160109      -0.55529371      -0.19090956
C        3.59646186       0.65739903       0.34895501       0.79534822       1.11180849       0.57583317       0.12224161      -1.49727247      -1.01493720
C        3.46002888      -0.38789407      -0.46242377       2.64091091       0.54924985      -0.86729830       0.23524297       3.25758054       2.09028944
H        3.29174664       1.70672285       0.26776275      -0.08280224       0.22018502      -0.16286257      -0.61653242      -0.25396707      -0.68449798
H        4.22523159       0.54467134       1.22718459      -0.40570651       0.25370967       0.20956068       0.09792224       0.02028830       0.49345180
H        1.04780860       1.68828741      -0.18428342      -0.10687573       0.15235281       0.51978462       0.38881177      -0.21459965      -0.01495000
H        2.96056596      -1.11655372      -1.00751725       0.79955222      -0.69433957       0.18057470      -0.62877526      -0.90906457      -0.88854516
9
Lattice="13.0 0.0 0.0 0.0 9.0 0.0 0.0 0.0 9.0" Properties=species:S:1:pos:R:3:momenta:R:3:forces:R:3 EPS_SCF=1e-06 energy=-1399.4513195401814 units=gap_units Integrated_spin_density=6.55109e-05 opt_dir=/home/tks32/dft_pbe/apr_8_opt_fragments_subset/singlepoint_1_CO2 time=60.0 free_energy=-1399.4513195401814 pbc="T T T"
C        0.27234834      -0.08097221      -0.03244984       0.78033896      -2.00530505      -1.12746935       0.09714827      -0.38782404       0.35704704
O       -0.32396690      -1.08041646      -0.19804031      -5.80370321       2.05749461       0.81227059      -0.47789230       0.46494102      -0.19371369
O        1.11149247       0.76471519       0.29207118       1.38293738      -1.64515584      -0.14039356       0.76743576      -0.43865675      -0.15451324
C        3.59690120       0.64883354       0.34316860       0.79534822       1.11180849       0.57583317       0.16709190      -1.40547461      -1.03254692
C        3.46216773      -0.36941540      -0.45031916       2.64091091       0.54924985      -0.86729830      -0.33797472       2.45117614       1.47386113
H        3.28856678       1.70567482       0.26427164      -0.08280224       0.22018502      -0.16286257      -0.57729827      -0.42031965      -0.66864659
H        4.22586464       0.54478338       1.22980807      -0.40570651       0.25370967       0.20956068       0.00089253       0.01430296       0.41420123
H        1.04977108       1.68725595      -0.18438443      -0.10687573       0.15235281       0.51978462       0.39474025      -0.26544482       0.00754974
H        2.95652260      -1.12241636      -1.01297818       0.79955222      -0.69433957       0.18057470      -0.03414343      -0.01270025      -0.20323869
9
Lattice="13.0 0.0 0.0 0.0 9.0 0.0 0.0 0.0 9.0" Properties=species:S:1:pos:R:3:momenta:R:3:forces:R:3 EPS_SCF=1e-06 energy=-1399.5467379867916 units=gap_units Integrated_spin_density=6.55109e-05 opt_dir=/home/tks32/dft_pbe/apr_8_opt_fragments_subset/singlepoint_1_CO2 time=60.0 free_energy=-1399.5467379867916 pbc="T T T"
C        0.27475171      -0.08156718      -0.02895811       0.78033896      -2.00530505      -1.12746935      -0.04551349      -0.58702529       0.26386081
O       -0.32878217      -1.07874464      -0.19997882      -5.80370321       2.05749461       0.81227059      -0.35885717       0.67115905      -0.12939143
O        1.11699813       0.76059558       0.29064669       1.38293738      -1.64515584      -0.14039356       0.76108075      -0.37278081      -0.13675290
C        3.59783641       0.63658412       0.33462512       0.79534822       1.11180849       0.57583317       0.33236576      -0.36828884      -0.33553462
C        3.46300085      -0.34486590      -0.43466359       2.64091091       0.54924985      -0.86729830      -1.01581505       0.67040550       0.09809693
H        3.28383991       1.70337372       0.25896952      -0.08280224       0.22018502      -0.16286257      -0.52111994      -0.61473774      -0.64861055
H        4.22643726       0.54493043       1.23350730      -0.40570651       0.25370967       0.20956068      -0.11619310       0.00559469       0.32149564
H        1.05281255       1.68547011      -0.18445096      -0.10687573       0.15235281       0.51978462       0.39789166      -0.34272851       0.04138319
H        2.95277328      -1.12773377      -1.01854959       0.79955222      -0.69433957       0.18057470       0.56616058       0.93840195       0.52545293
9
Lattice="13.0 0.0 0.0 0.0 9.0 0.0 0.0 0.0 9.0" Properties=species:S:1:pos:R:3:momenta:R:3:forces:R:3 EPS_SCF=1e-06 energy=-1399.5097150600711 units=gap_units Integrated_spin_density=6.55109e-05 opt_dir=/home/tks32/dft_pbe/apr_8_opt_fragments_subset/singlepoint_1_CO2 time=60.0 free_energy=-1399.5097150600711 pbc="T T T"
C        0.27673617      -0.08440586      -0.02478029       0.78033896      -2.00530505      -1.12746935       0.07840693      -0.37899585       0.24415039
O       -0.33452388      -1.07460671      -0.20223114      -5.80370321       2.05749461       0.81227059      -0.38532474       0.61071369      -0.10213241
O        1.12493934       0.75542533       0.28882810       1.38293738      -1.64515584      -0.14039356       0.61136542      -0.41186221      -0.14828724
C        3.59998214       0.62411466       0.32561951       0.79534822       1.11180849       0.57583317       0.82893812       3.08031206       2.29456685
C        3.45976510      -0.32014101      -0.42018870       2.64091091       0.54924985      -0.86729830      -1.78919764      -3.29022121      -2.99716204
H        3.27754110       1.69889081       0.25165279      -0.08280224       0.22018502      -0.16286257      -0.45788013      -0.76253988      -0.62502015
H        4.22649673       0.54508472       1.23809800      -0.40570651       0.25370967       0.20956068      -0.22292748      -0.00287309       0.22630809
H        1.05711100       1.68251815      -0.18434847      -0.10687573       0.15235281       0.51978462       0.39372890      -0.43614776       0.08213341
H        2.95162022      -1.12883762      -1.02150224       0.79955222      -0.69433957       0.18057470       0.94289061       1.59161426       1.02544310
9
Lattice="13.0 0.0 0.0 0.0 9.0 0.0 0.0 0.0 9.0" Properties=species:S:1:pos:R:3:momenta:R:3:forces:R:3 EPS_SCF=1e-06 energy=-1399.536143291617 units=gap_units Integrated_spin_density=6.55109e-05 opt_dir=/home/tks32/dft_pbe/apr_8_opt_fragments_subset/singlepoint_1_CO2 time=60.0 free_energy=-1399.536143291617 pbc="T T T"
C        0.27678518      -0.08464273      -0.02462769       0.78033896      -2.00530505      -1.12746935       0.09634011      -0.34439248       0.24873469
O       -0.33476470      -1.07422502      -0.20229497      -5.80370321       2.05749461       0.81227059      -0.39742175       0.58445921      -0.10571404
O        1.12532144       0.75516791       0.28873542       1.38293738      -1.64515584      -0.14039356       0.60367494      -0.41540917      -0.14682920
C        3.60050023       0.62603985       0.32705362       0.79534822       1.11180849       0.57583317       0.73154247       2.50147445       1.85012989
C        3.45864685      -0.32219740      -0.42206193       2.64091091       0.54924985      -0.86729830      -1.63272489      -2.65886732      -2.49414250
H        3.27725493       1.69841422       0.25126215      -0.08280224       0.22018502      -0.16286257      -0.46379755      -0.72707220      -0.61851009
H        4.22635740       0.54508293       1.23823944      -0.40570651       0.25370967       0.20956068      -0.21177987       0.00208329       0.23476630
H        1.05735708       1.68224555      -0.18429713      -0.10687573       0.15235281       0.51978462       0.39273844      -0.43373521       0.08172505
H        2.95220953      -1.12784286      -1.02086134       0.79955222      -0.69433957       0.18057470       0.88142809       1.49145942       0.94983990
9
Lattice="13.0 0.0 0.0 0.0 9.0 0.0 0.0 0.0 9.0" Properties=species:S:1:pos:R:3:momenta:R:3:forces:R:3 EPS_SCF=1e-06 energy=-1399.5739977856608 units=gap_units Integrated_spin_density=6.55109e-05 opt_dir=/home/tks32/dft_pbe/apr_8_opt_fragments_subset/singlepoint_1_CO2 time=60.0 free_energy=-1399.5739977856608 pbc="T T T"
C        0.27689660      -0.08509657      -0.02431655       0.78033896      -2.00530505      -1.12746935       0.12995453      -0.27935077       0.25696430
O       -0.33525916      -1.07347308      -0.20242630      -5.80370321       2.05749461       0.81227059      -0.41964370       0.53521944      -0.11234985
O        1.12608717       0.75464596       0.28854940       1.38293738      -1.64515584      -0.14039356       0.58912539      -0.42201881      -0.14367927
C        3.60147770       0.62952052       0.32963715       0.79534822       1.11180849       0.57583317       0.56551844       1.54273665       1.11647724
C        3.45649951      -0.32590612      -0.42549070       2.64091091       0.54924985      -0.86729830      -1.35221890      -1.59590819      -1.64628727
H        3.27667328       1.69747722       0.25047838      -0.08280224       0.22018502      -0.16286257      -0.47497145      -0.66050288      -0.60664638
H        4.22608402       0.54508277       1.23853079      -0.40570651       0.25370967       0.20956068      -0.19109952       0.01096400       0.25036545
H        1.05785300       1.68169713      -0.18419382      -0.10687573       0.15235281       0.51978462       0.39087270      -0.42921689       0.08100145
H        2.95335583      -1.12590537      -1.01962080       0.79955222      -0.69433957       0.18057470       0.76246251       1.29807744       0.80415434
9
Lattice="13.0 0.0 0.0 0.0 9.0 0.0 0.0 0.0 9.0" Properties=species:S:1:pos:R:3:momenta:R:3:forces:R:3 EPS_SCF=1e-06 energy=-1399.6053619656145 units=gap_units Integrated_spin_density=6.55109e-05 opt_dir=/home/tks32/dft_pbe/apr_8_opt_fragments_subset/singlepoint_1_CO2 time=60.0 free_energy=-1399.6053619656145 pbc="T T T"
C        0.27710303      -0.08573320      -0.02382663       0.78033896      -2.00530505      -1.12746935       0.17147692      -0.19369876       0.26663190
O       -0.33604693      -1.07235918      -0.20263625      -5.80370321       2.05749461       0.81227059      -0.44842331       0.46912621      -0.12095377
O        1.12725752       0.75383150       0.28826464       1.38293738      -1.64515584      -0.14039356       0.56929337      -0.43058656      -0.13821637
C        3.60281932       0.63391320       0.33287426       0.79534822       1.11180849       0.57583317       0.37482687       0.49673482       0.32128286
C        3.45346242      -0.33054749      -0.42992126       2.64091091       0.54924985      -0.86729830      -0.99900647      -0.39745099      -0.68823398
H        3.27576184       1.69609444       0.24927747      -0.08280224       0.22018502      -0.16286257      -0.48676325      -0.56928197      -0.59075842
H        4.22568189       0.54509158       1.23899750      -0.40570651       0.25370967       0.20956068      -0.16421137       0.02224464       0.27031374
H        1.05861858       1.68085298      -0.18403469      -0.10687573       0.15235281       0.51978462       0.38828101      -0.42303958       0.08011984
H        2.95501028      -1.12310137      -1.01784748       0.79955222      -0.69433957       0.18057470       0.59452623       1.02595219       0.59981419
9
Lattice="13.0 0.0 0.0 0.0 9.0 0.0 0.0 0.0 9.0" Properties=species:S:1:pos:R:3:momenta:R:3:forces:R:3 EPS_SCF=1e-06 energy=-1399.621566974183 units=gap_units Integrated_spin_density=6.55109e-05 opt_dir=/home/tks32/dft_pbe/apr_8_opt_fragments_subset/singlepoint_1_CO2 time=60.0 free_energy=-1399.621566974183 pbc="T T T"
C        0.27746623      -0.08650657      -0.02310983       0.78033896      -2.00530505      -1.12746935       0.21359347      -0.09952551       0.27456007
O       -0.33721989      -1.07087128      -0.20295035      -5.80370321       2.05749461       0.81227059      -0.47856562       0.39558902      -0.12964783
O        1.12889985       0.75265298       0.28786534       1.38293738      -1.64515584      -0.14039356       0.54661267      -0.43903494      -0.12913933
C        3.60441461       0.63838057       0.33612007       0.79534822       1.11180849       0.57583317       0.20168688      -0.37637302      -0.33489524
C        3.44969542      -0.33513594      -0.43462084       2.64091091       0.54924985      -0.86729830      -0.62757632       0.66680581       0.16613298
H        3.27443792       1.69426092       0.24758543      -0.08280224       0.22018502      -0.16286257      -0.49702054      -0.46643085      -0.57218047
H        4.22515006       0.54512252       1.23969722      -0.40570651       0.25370967       0.20956068      -0.13667653       0.03443509       0.28962381
H        1.05970933       1.67965554      -0.18380857      -0.10687573       0.15235281       0.51978462       0.38504741      -0.41560578       0.07925958
H        2.95711440      -1.11951628      -1.01563090       0.79955222      -0.69433957       0.18057470       0.39289859       0.70014016       0.35628644
9
Lattice="13.0 0.0 0.0 0.0 9.0 0.0 0.0 0.0 9.0" Properties=species:S:1:pos:R:3:momenta:R:3:forces:R:3 EPS_SCF=1e-06 energy=-1399.6263771965985 units=gap_units Integrated_spin_density=6.55109e-05 opt_dir=/home/tks32/dft_pbe/apr_8_opt_fragments_subset/singlepoint_1_CO2 time=60.0 free_energy=-1399.6263771965985 pbc="T T T"
C        0.27804693      -0.08732088      -0.02213845       0.78033896      -2.00530505      -1.12746935       0.24325531      -0.01766160       0.27615724
O       -0.33884423      -1.06906209      -0.20338711      -5.80370321       2.05749461       0.81227059      -0.50211553       0.33028681      -0.13547915
O        1.13102750       0.75107060       0.28735252       1.38293738      -1.64515584      -0.14039356       0.52548490      -0.44389421      -0.11507865
C        3.60609003       0.64195395       0.33864334       0.79534822       1.11180849       0.57583317       0.07439824      -0.93561861      -0.74759440
C        3.44555936      -0.33847318      -0.43865305       2.64091091       0.54924985      -0.86729830      -0.29240813       1.42975482       0.78358497
H        3.27265577       1.69205649       0.24538267      -0.08280224       0.22018502      -0.16286257      -0.50176866      -0.37081471      -0.55217144
H        4.22450901       0.54519129       1.24067113      -0.40570651       0.25370967       0.20956068      -0.11618118       0.04603474       0.30142034
H        1.06114857       1.67808397      -0.18351087      -0.10687573       0.15235281       0.51978462       0.38131930      -0.40743683       0.07855869
H        2.95947500      -1.11545770      -1.01321260       0.79955222      -0.69433957       0.18057470       0.18801576       0.36934959       0.11060241
9
Lattice="13.0 0.0 0.0 0.0 9.0 0.0 0.0 0.0 9.0" Properties=species:S:1:pos:R:3:momenta:R:3:forces:R:3 EPS_SCF=1e-06 energy=-1399.6273855346753 units=gap_units Integrated_spin_density=6.55109e-05 opt_dir=/home/tks32/dft_pbe/apr_8_opt_fragments_subset/singlepoint_1_CO2 time=60.0 free_energy=-1399.6273855346753 pbc="T T T"
C        0.27808494      -0.08732364      -0.02209530       0.78033896      -2.00530505      -1.12746935       0.24051640      -0.02050485       0.27492099
O       -0.33892269      -1.06901049      -0.20340828      -5.80370321       2.05749461       0.81227059      -0.50092041       0.33216622      -0.13483855
O        1.13110961       0.75100124       0.28733454       1.38293738      -1.64515584      -0.14039356       0.52593816      -0.44308165      -0.11416564
C        3.60610165       0.64180776       0.33852652       0.79534822       1.11180849       0.57583317       0.07743402      -0.91687531      -0.73355867
C        3.44551367      -0.33824978      -0.43853062       2.64091091       0.54924985      -0.86729830      -0.29625047       1.40901913       0.76765698
H        3.27257737       1.69199855       0.24529639      -0.08280224       0.22018502      -0.16286257      -0.50057627      -0.37272736      -0.55182082
H        4.22449086       0.54519849       1.24071823      -0.40570651       0.25370967       0.20956068      -0.11770535       0.04599058       0.29965351
H        1.06120815       1.67802031      -0.18349860      -0.10687573       0.15235281       0.51978462       0.38124293      -0.40728448       0.07855951
H        2.95950438      -1.11539999      -1.01319532       0.79955222      -0.69433957       0.18057470       0.19032098       0.37329772       0.11359270
9
Lattice="13.0 0.0 0.0 0.0 9.0 0.0 0.0 0.0 9.0" Properties=species:S:1:pos:R:3:momenta:R:3:forces:R:3 EPS_SCF=1e-06 energy=-1399.6293597941424 units=gap_units Integrated_spin_density=6.55109e-05 opt_dir=/home/tks32/dft_pbe/apr_8_opt_fragments_subset/singlepoint_1_CO2 time=60.0 free_energy=-1399.6293597941424 pbc="T T T"
C        0.27816053      -0.08732965      -0.02200917       0.78033896      -2.00530505      -1.12746935       0.23511985      -0.02607396       0.27247591
O       -0.33907948      -1.06890689      -0.20345053      -5.80370321       2.05749461       0.81227059      -0.49856959       0.33584733      -0.13357235
O        1.13127399       0.75086259       0.28729871       1.38293738      -1.64515584      -0.14039356       0.52680844      -0.44148554      -0.11235181
C        3.60612543       0.64151844       0.33829519       0.79534822       1.11180849       0.57583317       0.08355185      -0.87906062      -0.70519845
C        3.44542159      -0.33780631      -0.43828836       2.64091091       0.54924985      -0.86729830      -0.30390907       1.36728717       0.73558687
H        3.27242069       1.69188228       0.24512381      -0.08280224       0.22018502      -0.16286257      -0.49820798      -0.37648313      -0.55111969
H        4.22445427       0.54521287       1.24081217      -0.40570651       0.25370967       0.20956068      -0.12071929       0.04590641       0.29615612
H        1.06132737       1.67789294      -0.18347403      -0.10687573       0.15235281       0.51978462       0.38108916      -0.40698203       0.07856217
H        2.95956356      -1.11528383      -1.01316022       0.79955222      -0.69433957       0.18057470       0.19483662       0.38104437       0.11946124
9
Lattice="13.0 0.0 0.0 0.0 9.0 0.0 0.0 0.0 9.0" Properties=species:S:1:pos:R:3:momenta:R:3:forces:R:3 EPS_SCF=1e-06 energy=-1399.6322163613122 units=gap_units Integrated_spin_density=6.55109e-05 opt_dir=/home/tks32/dft_pbe/apr_8_opt_fragments_subset/singlepoint_1_CO2 time=60.0 free_energy=-1399.6322163613122 pbc="T T T"
C        0.27827284      -0.08733997      -0.02188033       0.78033896      -2.00530505      -1.12746935       0.22723510      -0.03412295       0.26887864
O       -0.33931449      -1.06875040      -0.20351371      -5.80370321       2.05749461       0.81227059      -0.49514571       0.34116698      -0.13171169
O        1.13152115       0.75065466       0.28724531       1.38293738      -1.64515584      -0.14039356       0.52801939      -0.43916619      -0.10966172
C        3.60616258       0.64109250       0.33795417       0.79534822       1.11180849       0.57583317       0.09282366      -0.82163277      -0.66202504
C        3.44528147      -0.33714967      -0.43793178       2.64091091       0.54924985      -0.86729830      -0.31530023       1.30416094       0.68704447
H        3.27218584       1.69170673       0.24486468      -0.08280224       0.22018502      -0.16286257      -0.49469766      -0.38193475      -0.55006651
H        4.22439860       0.54523447       1.24095249      -0.40570651       0.25370967       0.20956068      -0.12515207       0.04579169       0.29100319
H        1.06150643       1.67770166      -0.18343713      -0.10687573       0.15235281       0.51978462       0.38085580      -0.40653384       0.07856889
H        2.95965352      -1.11510752      -1.01310614       0.79955222      -0.69433957       0.18057470       0.20136172       0.39227089       0.12796976
9
Lattice="13.0 0.0 0.0 0.0 9.0 0.0 0.0 0.0 9.0" Properties=species:S:1:pos:R:3:momenta:R:3:forces:R:3 EPS_SCF=1e-06 energy=-1399.6358335927084 units=gap_units Integrated_spin_density=6.55109e-05 opt_dir=/home/tks32/dft_pbe/apr_8_opt_fragments_subset/singlepoint_1_CO2 time=60.0 free_energy=-1399.6358335927084 pbc="T T T"
C        0.27842062      -0.08735627      -0.02170912       0.78033896      -2.00530505      -1.12746935       0.21712247      -0.04427224       0.26421545
O       -0.33962777      -1.06853944      -0.20359764      -5.80370321       2.05749461       0.81227059      -0.49077593       0.34787311      -0.12930439
O        1.13185212       0.75037725       0.28717471       1.38293738      -1.64515584      -0.14039356       0.52945271      -0.43621564      -0.10613176
C        3.60621508       0.64054028       0.33751119       0.79534822       1.11180849       0.57583317       0.10531218      -0.74404012      -0.60350956
C        3.44509056      -0.33629064      -0.43746965       2.64091091       0.54924985      -0.86729830      -0.33023741       1.21931718       0.62175228
H        3.27187280       1.69147024       0.24451841      -0.08280224       0.22018502      -0.16286257      -0.49009749      -0.38884869      -0.54865584
H        4.22432278       0.54526331       1.24113859      -0.40570651       0.25370967       0.20956068      -0.13089403       0.04566264       0.28431118
H        1.06174587       1.67744595      -0.18338777      -0.10687573       0.15235281       0.51978462       0.38053942      -0.40594598       0.07858320
H        2.95977587      -1.11486821      -1.01303116       0.79955222      -0.69433957       0.18057470       0.20957809       0.40646975       0.13873946
9
Lattice="13.0 0.0 0.0 0.0 9.0 0.0 0.0 0.0 9.0" Properties=species:S:1:pos:R:3:momenta:R:3:forces:R:3 EPS_SCF=1e-06 energy=-1399.6400581304097 units=gap_units Integrated_spin_density=6.55109e-05 opt_dir=/home/tks32/dft_pbe/apr_8_opt_fragments_subset/singlepoint_1_CO2 time=60.0 free_energy=-1399.6400581304097 pbc="T T T"
C        0.27860227      -0.08738086      -0.02149582       0.78033896      -2.00530505      -1.12746935       0.20513166      -0.05600955       0.25860144
O       -0.34001968      -1.06827164      -0.20370216      -5.80370321       2.05749461       0.81227059      -0.48563067       0.35562525      -0.12641482
O        1.13226862       0.75002985       0.28708739       1.38293738      -1.64515584      -0.14039356       0.53094821      -0.43275649      -0.10180911
C        3.60628593       0.63987658       0.33697729       0.79534822       1.11180849       0.57583317       0.12101905      -0.64602509      -0.52932252
C        3.44484475      -0.33524434      -0.43691443       2.64091091       0.54924985      -0.86729830      -0.34836885       1.11281997       0.53973378
H        3.27148126       1.69117027       0.24408384      -0.08280224       0.22018502      -0.16286257      -0.48447922      -0.39689555      -0.54687545
H        4.22422521       0.54529950       1.24136979      -0.40570651       0.25370967       0.20956068      -0.13779412       0.04554414       0.27624140
H        1.06204662       1.67712487      -0.18332574      -0.10687573       0.15235281       0.51978462       0.38013525      -0.40522551       0.07860987
H        2.95993294      -1.11456177      -1.01293259       0.79955222      -0.69433957       0.18057470       0.21903868       0.42292283       0.15123539
9
Lattice="13.0 0.0 0.0 0.0 9.0 0.0 0.0 0.0 9.0" Properties=species:S:1:pos:R:3:momenta:R:3:forces:R:3 EPS_SCF=1e-06 energy=-1399.64471581611 units=gap_units Integrated_spin_density=6.55109e-05 opt_dir=/home/tks32/dft_pbe/apr_8_opt_fragments_subset/singlepoint_1_CO2 time=60.0 free_energy=-1399.64471581611 pbc="T T T"
C        0.27881587      -0.08741668      -0.02124068       0.78033896      -2.00530505      -1.12746935       0.19169656      -0.06869662       0.25217874
O       -0.34049103      -1.06794374      -0.20382710      -5.80370321       2.05749461       0.81227059      -0.47992003       0.36399892      -0.12312333
O        1.13277317       0.74961147       0.28698393       1.38293738      -1.64515584      -0.14039356       0.53230597      -0.42893882      -0.09675015
C        3.60637926       0.63912142       0.33636747       0.79534822       1.11180849       0.57583317       0.13981389      -0.52803732      -0.43966047
C        3.44453842      -0.33403080      -0.43628288       2.64091091       0.54924985      -0.86729830      -0.36909621       0.98554287       0.44164914
H        3.27101052       1.69080334       0.24355913      -0.08280224       0.22018502      -0.16286257      -0.47793597      -0.40563893      -0.54470279
H        4.22410374       0.54534320       1.24164534      -0.40570651       0.25370967       0.20956068      -0.14565642       0.04547217       0.26700466
H        1.06241017       1.67673689      -0.18325071      -0.10687573       0.15235281       0.51978462       0.37963724      -0.40437937       0.07865490
H        2.96012782      -1.11418265      -1.01280694       0.79955222      -0.69433957       0.18057470       0.22915497       0.44067711       0.16474929
9
Lattice="13.0 0.0 0.0 0.0 9.0 0.0 0.0 0.0 9.0" Properties=species:S:1:pos:R:3:momenta:R:3:forces:R:3 EPS_SCF=1e-06 energy=-1399.6496285199446 units=gap_units Integrated_spin_density=6.55109e-05 opt_dir=/home/tks32/dft_pbe/apr_8_opt_fragments_subset/singlepoint_1_CO2 time=60.0 free_energy=-1399.6496285199446 pbc="T T T"
C        0.27905922      -0.08746722      -0.02094383       0.78033896      -2.00530505      -1.12746935       0.17732632      -0.08158239       0.24511391
O       -0.34104320      -1.06755158      -0.20397237      -5.80370321       2.05749461       0.81227059      -0.47388771       0.37249427      -0.11952532