9
Lattice="13.0 0.0 0.0 0.0 9.0 0.0 0.0 0.0 9.0" Properties=species:S:1:pos:R:3:momenta:R:3:forces:R:3 EPS_SCF=1e-06 energy=-1399.1228926702538 units=gap_units Integrated_spin_density=6.55109e-05 opt_dir=/home/tks32/dft_pbe/apr_8_opt_fragments_subset/singlepoint_1_CO2 time=55.0 free_energy=-1399.1228926702538 pbc="T T T"
C        0.23605888      -0.01209252       0.00296805       1.06440032      -0.54968677      -0.79122539      -0.36942657      -3.61255879      -0.95601398
O       -0.13542097      -1.13075833      -0.22384586      -5.75617310       1.04587006       0.95316357      -0.18234070       1.90336850       0.12615852
O        1.05914197       0.82331910       0.30147552       0.64599825      -2.14366210      -0.31912996       1.41821464       2.06966169       0.20232866
C        3.57074108       0.59438447       0.32907422      -0.22386827      -0.00384342      -1.25328879       1.38210145      -3.67979821      -0.04794818
C        3.35557348      -0.41458671      -0.42206293       3.50028049       1.91148000       0.25727335      -1.20559889       2.38268844       0.92712937
H        3.23385257       1.58131488       0.25664119       0.38974848      -0.00479165       0.18322569      -0.90304867       1.95263323      -0.35465021
H        4.37636185       0.39917540       1.09244668      -0.17680896       0.25606245       0.40591866      -0.52574595       0.51164560      -0.34650207
H        1.15034107       1.63514996      -0.41653379      -0.35906204       0.15702046       0.34263913       0.27960009      -0.61074328       0.71419008
H        2.55900846      -0.73427850      -1.09203703       0.91548482      -0.66844903       0.22142373       0.10624460      -0.91689716      -0.26469218
9
Lattice="13.0 0.0 0.0 0.0 9.0 0.0 0.0 0.0 9.0" Properties=species:S:1:pos:R:3:momenta:R:3:forces:R:3 EPS_SCF=1e-06 energy=-1399.2975872414945 units=gap_units Integrated_spin_density=6.55109e-05 opt_dir=/home/tks32/dft_pbe/apr_8_opt_fragments_subset/singlepoint_1_CO2 time=55.0 free_energy=-1399.2975872414945 pbc="T T T"
C        0.23236461      -0.04821811      -0.00659209       1.06440032      -0.54968677      -0.79122539       3.22045035       3.33514536       0.68864332
O       -0.13724438      -1.11172465      -0.22258427      -5.75617310       1.04587006       0.95316357      -1.46921546      -2.42573792      -0.72982156
O        1.07332412       0.84401572       0.30349881       0.64599825      -2.14366210      -0.31912996      -0.89488829      -0.56806024      -0.40919659
C        3.58456209       0.55758649       0.32859474      -0.22386827      -0.00384342      -1.25328879       0.43532501       1.06471919       0.88374134
C        3.34351749      -0.39075983      -0.41279164       3.50028049       1.91148000       0.25727335      -1.83152334      -0.32985999      -1.11849022
H        3.22482208       1.60084121       0.25309469       0.38974848      -0.00479165       0.18322569      -0.11556158      -0.01182749      -0.14588332
H        4.37110439       0.40429186       1.08898166      -0.17680896       0.25606245       0.40591866       0.10414016       0.28240863       0.28229351
H        1.15313707       1.62904253      -0.40939189      -0.35906204       0.15702046       0.34263913       0.24319521      -0.53035575       0.59474761
H        2.56007091      -0.74344747      -1.09468395       0.91548482      -0.66844903       0.22142373       0.30807794      -0.81643180      -0.04603410
9
Lattice="13.0 0.0 0.0 0.0 9.0 0.0 0.0 0.0 9.0" Properties=species:S:1:pos:R:3:momenta:R:3:forces:R:3 EPS_SCF=1e-06 energy=-1399.3737174767878 units=gap_units Integrated_spin_density=6.55109e-05 opt_dir=/home/tks32/dft_pbe/apr_8_opt_fragments_subset/singlepoint_1_CO2 time=55.0 free_energy=-1399.3737174767878 pbc="T T T"
C        0.24041574      -0.03988024      -0.00487048       1.06440032      -0.54968677      -0.79122539       2.08039459       1.17957205       0.21333795
O       -0.14091742      -1.11778899      -0.22440883      -5.75617310       1.04587006       0.95316357      -0.88746350      -0.80065095      -0.40880158
O        1.07108690       0.84259557       0.30247582       0.64599825      -2.14366210      -0.31912996      -0.38604412      -0.17208913      -0.15351565
C        3.58565041       0.56024829       0.33080409      -0.22386827      -0.00384342      -1.25328879       0.25017374       0.49152350       0.41953971
C        3.33893868      -0.39158448      -0.41558786       3.50028049       1.91148000       0.25727335      -1.51169907       0.24502123      -0.56017047
H        3.22453318       1.60081164       0.25272998       0.38974848      -0.00479165       0.18322569      -0.13225096       0.03050698      -0.13863904
H        4.37136474       0.40499788       1.08968739      -0.17680896       0.25606245       0.40591866       0.12464258       0.27023812       0.28339002
H        1.15374506       1.62771664      -0.40790502      -0.35906204       0.15702046       0.34263913       0.26304265      -0.39016982       0.49256349
H        2.56084110      -0.74548855      -1.09479904       0.91548482      -0.66844903       0.22142373       0.19920409      -0.85395196      -0.14770443
9
Lattice="13.0 0.0 0.0 0.0 9.0 0.0 0.0 0.0 9.0" Properties=species:S:1:pos:R:3:momenta:R:3:forces:R:3 EPS_SCF=1e-06 energy=-1399.407681691416 units=gap_units Integrated_spin_density=6.55109e-05 opt_dir=/home/tks32/dft_pbe/apr_8_opt_fragments_subset/singlepoint_1_CO2 time=55.0 free_energy=-1399.407681691416 pbc="T T T"
C        0.25380963      -0.02889036      -0.00269059       1.06440032      -0.54968677      -0.79122539       0.33538454      -1.77590900      -0.46030365
O       -0.14684574      -1.12561294      -0.22725900      -5.75617310       1.04587006       0.95316357      -0.10385189       1.24805467      -0.00262641
O        1.06793258       0.84080888       0.30110146       0.64599825      -2.14366210      -0.31912996       0.47981991       0.50667939       0.28919577
C        3.58736919       0.56409643       0.33403231      -0.22386827      -0.00384342      -1.25328879      -0.00325123      -0.20429906      -0.16348238
C        3.33035046      -0.39160259      -0.41975985       3.50028049       1.91148000       0.25727335      -1.03305761       0.94799795       0.17030619
H        3.22388234       1.60087518       0.25199204       0.38974848      -0.00479165       0.18322569      -0.15503712       0.08912672      -0.12517722
H        4.37196739       0.40643189       1.09116001      -0.17680896       0.25606245       0.40591866       0.15179782       0.24832527       0.27866903
H        1.15506958       1.62537033      -0.40511124      -0.35906204       0.15702046       0.34263913       0.30188830      -0.14947129       0.31777967
H        2.56212295      -0.74984908      -1.09533910       0.91548482      -0.66844903       0.22142373       0.02630730      -0.91050464      -0.30436101
9
Lattice="13.0 0.0 0.0 0.0 9.0 0.0 0.0 0.0 9.0" Properties=species:S:1:pos:R:3:momenta:R:3:forces:R:3 EPS_SCF=1e-06 energy=-1399.4131349298725 units=gap_units Integrated_spin_density=6.55109e-05 opt_dir=/home/tks32/dft_pbe/apr_8_opt_fragments_subset/singlepoint_1_CO2 time=55.0 free_energy=-1399.4131349298725 pbc="T T T"
C        0.25401924      -0.03000030      -0.00297828       1.06440032      -0.54968677      -0.79122539       0.42807038      -1.58486207      -0.41456050
O       -0.14691064      -1.12483291      -0.22726064      -5.75617310       1.04587006       0.95316357      -0.14732767       1.11744877      -0.02940928
O        1.06823247       0.84112556       0.30128221       0.64599825      -2.14366210      -0.31912996       0.42412523       0.44805866       0.27285942
C        3.58736716       0.56396874       0.33393013      -0.22386827      -0.00384342      -1.25328879       0.00466231      -0.16811541      -0.13863326
C        3.32970480      -0.39101009      -0.41965341       3.50028049       1.91148000       0.25727335      -1.03546914       0.91090647       0.14255773
H        3.22378545       1.60093089       0.25191381       0.38974848      -0.00479165       0.18322569      -0.15220031       0.08678576      -0.12385599
H        4.37206227       0.40658709       1.09133418      -0.17680896       0.25606245       0.40591866       0.14787725       0.24738711       0.27445084
H        1.15525826       1.62527691      -0.40491263      -0.35906204       0.15702046       0.34263913       0.30215957      -0.15011659       0.31632882
H        2.56213940      -0.75041814      -1.09552933       0.91548482      -0.66844903       0.22142373       0.02810238      -0.90749269      -0.29973778
9
Lattice="13.0 0.0 0.0 0.0 9.0 0.0 0.0 0.0 9.0" Properties=species:S:1:pos:R:3:momenta:R:3:forces:R:3 EPS_SCF=1e-06 energy=-1399.4226748873248 units=gap_units Integrated_spin_density=6.55109e-05 opt_dir=/home/tks32/dft_pbe/apr_8_opt_fragments_subset/singlepoint_1_CO2 time=55.0 free_energy=-1399.4226748873248 pbc="T T T"
C        0.25450405      -0.03209571      -0.00352400       1.06440032      -0.54968677      -0.79122539       0.59794404      -1.22860433      -0.32932118
O       -0.14707099      -1.12335779      -0.22728246      -5.75617310       1.04587006       0.95316357      -0.22905705       0.87175128      -0.07990241
O        1.06879579       0.84172054       0.30163365       0.64599825      -2.14366210      -0.31912996       0.32279194       0.34003218       0.24396240
C        3.58736855       0.56373752       0.33374227      -0.22386827      -0.00384342      -1.25328879       0.01963356      -0.09884997      -0.09119944
C        3.32840734      -0.38984665      -0.41945899       3.50028049       1.91148000       0.25727335      -1.03913705       0.83961846       0.08966010
H        3.22359294       1.60104106       0.25175771       0.38974848      -0.00479165       0.18322569      -0.14685720       0.08245108      -0.12125632
H        4.37224996       0.40689793       1.09168081      -0.17680896       0.25606245       0.40591866       0.14036347       0.24544492       0.26620022
H        1.15563711       1.62508898      -0.40451503      -0.35906204       0.15702046       0.34263913       0.30298830      -0.15032687       0.31275288
H        2.56217364      -0.75155813      -1.09590790       0.91548482      -0.66844903       0.22142373       0.03132999      -0.90151675      -0.29089625
9
Lattice="13.0 0.0 0.0 0.0 9.0 0.0 0.0 0.0 9.0" Properties=species:S:1:pos:R:3:momenta:R:3:forces:R:3 EPS_SCF=1e-06 energy=-1399.4342790273245 units=gap_units Integrated_spin_density=6.55109e-05 opt_dir=/home/tks32/dft_pbe/apr_8_opt_fragments_subset/singlepoint_1_CO2 time=55.0 free_energy=-1399.4342790273245 pbc="T T T"
C        0.25540138      -0.03492881      -0.00426906       1.06440032      -0.54968677      -0.79122539       0.81405751      -0.76019526      -0.21721000
O       -0.14739189      -1.12135808      -0.22736371      -5.75617310       1.04587006       0.95316357      -0.33753902       0.54440326      -0.14747911
O        1.06955165       0.84251819       0.30213805       0.64599825      -2.14366210      -0.31912996       0.19474378       0.20011113       0.20966586
C        3.58738495       0.56345320       0.33350287      -0.22386827      -0.00384342      -1.25328879       0.03969553      -0.00345946      -0.02634983
C        3.32643846      -0.38815221      -0.41921488       3.50028049       1.91148000       0.25727335      -1.04136470       0.74065299       0.01747260
H        3.22330646       1.60120379       0.25152373       0.38974848      -0.00479165       0.18322569      -0.13963942       0.07686405      -0.11744492
H        4.37252710       0.40736691       1.09219800      -0.17680896       0.25606245       0.40591866       0.12989698       0.24236160       0.25426672
H        1.15621168       1.62480394      -0.40391607      -0.35906204       0.15702046       0.34263913       0.30491720      -0.14803960       0.30575923
H        2.56222861      -0.75327918      -1.09647289       0.91548482      -0.66844903       0.22142373       0.03523213      -0.89269871      -0.27868054
9
Lattice="13.0 0.0 0.0 0.0 9.0 0.0 0.0 0.0 9.0" Properties=species:S:1:pos:R:3:momenta:R:3:forces:R:3 EPS_SCF=1e-06 energy=-1399.4463896959162 units=gap_units Integrated_spin_density=6.55109e-05 opt_dir=/home/tks32/dft_pbe/apr_8_opt_fragments_subset/singlepoint_1_CO2 time=55.0 free_energy=-1399.4463896959162 pbc="T T T"
C        0.25691089      -0.03813407      -0.00512690       1.06440032      -0.54968677      -0.79122539       1.03135371      -0.26024387      -0.09703041
O       -0.14797175      -1.11908893      -0.22756399      -5.75617310       1.04587006       0.95316357      -0.45370116       0.18946007      -0.22139728
O        1.07039983       0.84340862       0.30277278       0.64599825      -2.14366210      -0.31912996       0.06518133       0.05212576       0.17949619
C        3.58743393       0.56319433       0.33326469      -0.22386827      -0.00384342      -1.25328879       0.06138575       0.10593370       0.04679241
C        3.32376856      -0.38598860      -0.41898012       3.50028049       1.91148000       0.25727335      -1.03751197       0.62546083      -0.06383644
H        3.22292823       1.60141652       0.25121189       0.38974848      -0.00479165       0.18322569      -0.13143212       0.07121948      -0.11250445
H        4.37288853       0.40799797       1.09288272      -0.17680896       0.25606245       0.40591866       0.11743278       0.23795559       0.23918497
H        1.15699171       1.62441975      -0.40311336      -0.35906204       0.15702046       0.34263913       0.30863764      -0.14060137       0.29371195
H        2.56230846      -0.75559785      -1.09722167       0.91548482      -0.66844903       0.22142373       0.03865404      -0.88131019      -0.26441694
9
Lattice="13.0 0.0 0.0 0.0 9.0 0.0 0.0 0.0 9.0" Properties=species:S:1:pos:R:3:momenta:R:3:forces:R:3 EPS_SCF=1e-06 energy=-1399.458807680529 units=gap_units Integrated_spin_density=6.55109e-05 opt_dir=/home/tks32/dft_pbe/apr_8_opt_fragments_subset/singlepoint_1_CO2 time=55.0 free_energy=-1399.458807680529 pbc="T T T"
C        0.25923875      -0.04126339      -0.00599014       1.06440032      -0.54968677      -0.79122539       1.19684197       0.17164279       0.00833992
O       -0.14892002      -1.11686864      -0.22795232      -5.75617310       1.04587006       0.95316357      -0.55186377      -0.12224754      -0.28748576
O        1.07122446       0.84425900       0.30351274       0.64599825      -2.14366210      -0.31912996      -0.03921896      -0.07760410       0.16324723
C        3.58753571       0.56306091       0.33309431      -0.22386827      -0.00384342      -1.25328879       0.07970050       0.21161321       0.11487247
C        3.32039057      -0.38345353      -0.41882883       3.50028049       1.91148000       0.25727335      -1.02136730       0.51084591      -0.13968188
H        3.22246429       1.60167491       0.25082549       0.38974848      -0.00479165       0.18322569      -0.12328584       0.06721784      -0.10652451
H        4.37332418       0.40878956       1.09372376      -0.17680896       0.25606245       0.40591866       0.10422184       0.23210045       0.22176021
H        1.15798380       1.62394185      -0.40211488      -0.35906204       0.15702046       0.34263913       0.31475157      -0.12568846       0.27531033
H        2.56241665      -0.75851292      -1.09814408       0.91548482      -0.66844903       0.22142373       0.04021998      -0.86788012      -0.24983800
9
Lattice="13.0 0.0 0.0 0.0 9.0 0.0 0.0 0.0 9.0" Properties=species:S:1:pos:R:3:momenta:R:3:forces:R:3 EPS_SCF=1e-06 energy=-1399.4725455576036 units=gap_units Integrated_spin_density=6.55109e-05 opt_dir=/home/tks32/dft_pbe/apr_8_opt_fragments_subset/singlepoint_1_CO2 time=55.0 free_energy=-1399.4725455576036 pbc="T T T"
C        0.26250437      -0.04391191      -0.00675891       1.06440032      -0.54968677      -0.79122539       1.26556962       0.44685112       0.07866440
O       -0.15031321      -1.11498994      -0.22858299      -5.75617310       1.04587006       0.95316357      -0.60708325      -0.32451776      -0.33233238
O        1.07192827       0.84494843       0.30433836       0.64599825      -2.14366210      -0.31912996      -0.09842699      -0.16763903       0.16764047
C        3.58770525       0.56314780       0.33305332      -0.22386827      -0.00384342      -1.25328879       0.08932136       0.29433665       0.16347920
C        3.31635144      -0.38067234      -0.41882928       3.50028049       1.91148000       0.25727335      -0.98709246       0.41523965      -0.19463347
H        3.22192617       1.60197320       0.25037355       0.38974848      -0.00479165       0.18322569      -0.11614867       0.06654071      -0.09965251
H        4.37381820       0.40972900       1.09469759      -0.17680896       0.25606245       0.40591866       0.09154539       0.22483907       0.20298171
H        1.15918451       1.62338881      -0.40094699      -0.35906204       0.15702046       0.34263913       0.32348862      -0.10253556       0.25042696
H        2.56255337      -0.76198531      -1.09921860       0.91548482      -0.66844903       0.22142373       0.03882638      -0.85311486      -0.23657439
9
Lattice="13.0 0.0 0.0 0.0 9.0 0.0 0.0 0.0 9.0" Properties=species:S:1:pos:R:3:momenta:R:3:forces:R:3 EPS_SCF=1e-06 energy=-1399.4886076872817 units=gap_units Integrated_spin_density=6.55109e-05 opt_dir=/home/tks32/dft_pbe/apr_8_opt_fragments_subset/singlepoint_1_CO2 time=55.0 free_energy=-1399.4886076872817 pbc="T T T"
C        0.26671111      -0.04584798      -0.00737200       1.06440032      -0.54968677      -0.79122539       1.21352216       0.51649482       0.10258409
O       -0.15217517      -1.11362416      -0.22948347      -5.75617310       1.04587006       0.95316357      -0.60349405      -0.37912331      -0.34795498
O        1.07246311       0.84540101       0.30524934       0.64599825      -2.14366210      -0.31912996      -0.10374403      -0.20639986       0.19470289
C        3.58794732       0.56352083       0.33318017      -0.22386827      -0.00384342      -1.25328879       0.08625180       0.33948706       0.18177900
C        3.31172750      -0.37775333      -0.41902464       3.50028049       1.91148000       0.25727335      -0.93100966       0.35266301      -0.21748559
H        3.22132552       1.60230832       0.24986699       0.38974848      -0.00479165       0.18322569      -0.11061456       0.07032314      -0.09206463
H        4.37435452       0.41079970       1.09577735      -0.17680896       0.25606245       0.40591866       0.08031919       0.21636477       0.18369190
H        1.16058919       1.62278836      -0.39964505      -0.35906204       0.15702046       0.34263913       0.33468814      -0.07227096       0.22023228
H        2.56271530      -0.76596500      -1.10042264       0.91548482      -0.66844903       0.22142373       0.03408099      -0.83753865      -0.22548496
9
Lattice="13.0 0.0 0.0 0.0 9.0 0.0 0.0 0.0 9.0" Properties=species:S:1:pos:R:3:momenta:R:3:forces:R:3 EPS_SCF=1e-06 energy=-1399.5088716127088 units=gap_units Integrated_spin_density=6.55109e-05 opt_dir=/home/tks32/dft_pbe/apr_8_opt_fragments_subset/singlepoint_1_CO2 time=55.0 free_energy=-1399.5088716127088 pbc="T T T"
C        0.27235843      -0.04713365      -0.00785363       1.06440032      -0.54968677      -0.79122539       1.01418107       0.35205701       0.07382005
O       -0.15475585      -1.11273525      -0.23080008      -5.75617310       1.04587006       0.95316357      -0.52695354      -0.26473130      -0.33013595
O        1.07286584       0.84559689       0.30638910       0.64599825      -2.14366210      -0.31912996      -0.04897227      -0.18732764       0.24853152
C        3.58829234       0.56430490       0.33352785      -0.22386827      -0.00384342      -1.25328879       0.06600072       0.33782865       0.16117487
C        3.30601231      -0.37443264      -0.41948377       3.50028049       1.91148000       0.25727335      -0.84260339       0.32905304      -0.20038456
H        3.22059574       1.60272600       0.24925301       0.38974848      -0.00479165       0.18322569      -0.10660110       0.08032423      -0.08299545
H        4.37498361       0.41212405       1.09707074      -0.17680896       0.25606245       0.40591866       0.07001737       0.20588962       0.16230273
H        1.16238873       1.62210563      -0.39808705      -0.35906204       0.15702046       0.34263913       0.34946829      -0.03366295       0.18316695
H        2.56291725      -0.77092816      -1.10189012       0.91548482      -0.66844903       0.22142373       0.02546285      -0.81943065      -0.21548016
9
Lattice="13.0 0.0 0.0 0.0 9.0 0.0 0.0 0.0 9.0" Properties=species:S:1:pos:R:3:momenta:R:3:forces:R:3 EPS_SCF=1e-06 energy=-1399.5319352219376 units=gap_units Integrated_spin_density=6.55109e-05 opt_dir=/home/tks32/dft_pbe/apr_8_opt_fragments_subset/singlepoint_1_CO2 time=55.0 free_energy=-1399.5319352219376 pbc="T T T"
C        0.27953162      -0.04786074      -0.00821625       1.06440032      -0.54968677      -0.79122539       0.66452938      -0.03989091      -0.00716387
O       -0.15813249      -1.11226566      -0.23261803      -5.75617310       1.04587006       0.95316357      -0.37376641       0.01350142      -0.27941462
O        1.07318889       0.84549989       0.30790495       0.64599825      -2.14366210      -0.31912996       0.06324721      -0.10716006       0.32612809
C        3.58873686       0.56560701       0.33412292      -0.22386827      -0.00384342      -1.25328879       0.02572391       0.28024485       0.09498629
C        3.29903849      -0.37063013      -0.42025023       3.50028049       1.91148000       0.25727335      -0.71800535       0.35034254      -0.13867253
H        3.21970677       1.60326479       0.24851551       0.38974848      -0.00479165       0.18322569      -0.10430672       0.09806699      -0.07226566
H        4.37571591       0.41375658       1.09860486      -0.17680896       0.25606245       0.40591866       0.06062363       0.19342603       0.13844194
H        1.16471536       1.62137665      -0.39625825      -0.35906204       0.15702046       0.34263913       0.36774613       0.00864320       0.14240748
H        2.56315698      -0.77712064      -1.10367942       0.91548482      -0.66844903       0.22142373       0.01420824      -0.79717406      -0.20444712
9
Lattice="13.0 0.0 0.0 0.0 9.0 0.0 0.0 0.0 9.0" Properties=species:S:1:pos:R:3:momenta:R:3:forces:R:3 EPS_SCF=1e-06 energy=-1399.5551501634243 units=gap_units Integrated_spin_density=6.55109e-05 opt_dir=/home/tks32/dft_pbe/apr_8_opt_fragments_subset/singlepoint_1_CO2 time=55.0 free_energy=-1399.5551501634243 pbc="T T T"
C        0.28802148      -0.04866456      -0.00859083       1.06440032      -0.54968677      -0.79122539       0.23202088      -0.52756278      -0.11071111
O       -0.16225484      -1.11177186      -0.23499895      -5.75617310       1.04587006       0.95316357      -0.17510773       0.36384289      -0.21394122
O        1.07364006       0.84518230       0.31008263       0.64599825      -2.14366210      -0.31912996       0.19562685       0.00592097       0.40828243
C        3.58923105       0.56747784       0.33490955      -0.22386827      -0.00384342      -1.25328879      -0.03016724       0.17728290      -0.00705237
C        3.29063599      -0.36613363      -0.42129715       3.50028049       1.91148000       0.25727335      -0.56333258       0.40127006      -0.04779530
H        3.21860929       1.60400196       0.24763449       0.38974848      -0.00479165       0.18322569      -0.10298830       0.12386540      -0.05968892
H        4.37656771       0.41577591       1.10041297      -0.17680896       0.25606245       0.40591866       0.05055888       0.17927464       0.11062765
H        1.16778346       1.62067122      -0.39414958      -0.35906204       0.15702046       0.34263913       0.38844604       0.04255220       0.10585276
H        2.56342418      -0.78491143      -1.10587707       0.91548482      -0.66844903       0.22142373       0.00494320      -0.76644628      -0.18557390
9
Lattice="13.0 0.0 0.0 0.0 9.0 0.0 0.0 0.0 9.0" Properties=species:S:1:pos:R:3:momenta:R:3:forces:R:3 EPS_SCF=1e-06 energy=-1399.5782563282178 units=gap_units Integrated_spin_density=6.55109e-05 opt_dir=/home/tks32/dft_pbe/apr_8_opt_fragments_subset/singlepoint_1_CO2 time=55.0 free_energy=-1399.5782563282178 pbc="T T T"
C        0.29705258      -0.05082358      -0.00924842       1.06440032      -0.54968677      -0.79122539      -0.11073143      -0.81570726      -0.16628746
O       -0.16680104      -1.11034301      -0.23791562      -5.75617310       1.04587006       0.95316357      -0.01184244       0.59081436      -0.17382326
O        1.07459272       0.84488212       0.31329864       0.64599825      -2.14366210      -0.31912996       0.25908073       0.07145448       0.45157422
C        3.58964411       0.56979330       0.33567269      -0.22386827      -0.00384342      -1.25328879      -0.08419357       0.07269671      -0.10763149
C        3.28083720      -0.36063250      -0.42246030       3.50028049       1.91148000       0.25727335      -0.40404433       0.43369289       0.02465296
H        3.21725359       1.60505361       0.24660547       0.38974848      -0.00479165       0.18322569      -0.10021042       0.15449629      -0.04538581
H        4.37754418       0.41824401       1.10249422      -0.17680896       0.25606245       0.40591866       0.03611830       0.16424443       0.07622996
H        1.17183272       1.62008029      -0.39178210      -0.35906204       0.15702046       0.34263913       0.40888444       0.04756497       0.08646988
H        2.56370233      -0.79462648      -1.10853853       0.91548482      -0.66844903       0.22142373       0.00693873      -0.71925688      -0.14579901
9
Lattice="13.0 0.0 0.0 0.0 9.0 0.0 0.0 0.0 9.0" Properties=species:S:1:pos:R:3:momenta:R:3:forces:R:3 EPS_SCF=1e-06 energy=-1399.603470486399 units=gap_units Integrated_spin_density=6.55109e-05 opt_dir=/home/tks32/dft_pbe/apr_8_opt_fragments_subset/singlepoint_1_CO2 time=55.0 free_energy=-1399.603470486399 pbc="T T T"
C        0.30570524      -0.05538113      -0.01039374       1.06440032      -0.54968677      -0.79122539      -0.19573563      -0.64160308      -0.10734139
O       -0.17135649      -1.10717614      -0.24132948      -5.75617310       1.04587006       0.95316357       0.03431998       0.52565534      -0.19532948
O        1.07630568       0.84479482       0.31783101       0.64599825      -2.14366210      -0.31912996       0.17287207       0.01007288       0.41457080
C        3.58980600       0.57231049       0.33611342      -0.22386827      -0.00384342      -1.25328879      -0.11415764       0.02028889      -0.16152779
C        3.26989980      -0.35388079      -0.42354399       3.50028049       1.91148000       0.25727335      -0.27410173       0.39308007       0.02373876
H        3.21560940       1.60655591       0.24544814       0.38974848      -0.00479165       0.18322569      -0.09296808       0.18327940      -0.02993653
H        4.37862186       0.42118354       1.10478897      -0.17680896       0.25606245       0.40591866       0.01358271       0.14910188       0.03280374
H        1.17706747       1.61963327      -0.38917248      -0.35906204       0.15702046       0.34263913       0.42688967       0.00627756       0.09458887
H        2.56399942      -0.80641220      -1.11161580       0.91548482      -0.66844903       0.22142373       0.02929866      -0.64615294      -0.07156698
9
Lattice="13.0 0.0 0.0 0.0 9.0 0.0 0.0 0.0 9.0" Properties=species:S:1:pos:R:3:momenta:R:3:forces:R:3 EPS_SCF=1e-06 energy=-1399.6283898607767 units=gap_units Integrated_spin_density=6.55109e-05 opt_dir=/home/tks32/dft_pbe/apr_8_opt_fragments_subset/singlepoint_1_CO2 time=55.0 free_energy=-1399.6283898607767 pbc="T T T"
C        0.31359158      -0.06229891      -0.01193216       1.06440032      -0.54968677      -0.79122539       0.00362466       0.01758067       0.07578848
O       -0.17576356      -1.10207297      -0.24545254      -5.75617310       1.04587006       0.95316357      -0.06242440       0.14504982      -0.28624292
O        1.07865234       0.84474530       0.32388113       0.64599825      -2.14366210      -0.31912996      -0.05964335      -0.17653005       0.29166813
C        3.58954346       0.57489138       0.33595262      -0.22386827      -0.00384342      -1.25328879      -0.10492531       0.05481190      -0.14023972
C        3.25799552      -0.34570134      -0.42453458       3.50028049       1.91148000       0.25727335      -0.19606440       0.24733283      -0.08264701
H        3.21362775       1.60873150       0.24418504       0.38974848      -0.00479165       0.18322569      -0.07923841       0.20177543      -0.01410177
H        4.37974498       0.42466289       1.10719489      -0.17680896       0.25606245       0.40591866      -0.01894119       0.13374372      -0.02153627
H        1.18386244       1.61921162      -0.38622384      -0.35906204       0.15702046       0.34263913       0.44207360      -0.08555826       0.13218242
H        2.56440387      -0.82054171      -1.11494450       0.91548482      -0.66844903       0.22142373       0.07553880      -0.53820607       0.04512865
9
Lattice="13.0 0.0 0.0 0.0 9.0 0.0 0.0 0.0 9.0" Properties=species:S:1:pos:R:3:momenta:R:3:forces:R:3 EPS_SCF=1e-06 energy=-1399.648340980413 units=gap_units Integrated_spin_density=6.55109e-05 opt_dir=/home/tks32/dft_pbe/apr_8_opt_fragments_subset/singlepoint_1_CO2 time=55.0 free_energy=-1399.648340980413 pbc="T T T"
C        0.32146879      -0.06910005      -0.01306857       1.06440032      -0.54968677      -0.79122539       0.18383114       0.64084518       0.25265346
O       -0.18048155      -1.09622907      -0.25105856      -5.75617310       1.04587006       0.95316357      -0.16401784      -0.22782029      -0.37885101