9
Lattice="13.0 0.0 0.0 0.0 9.0 0.0 0.0 0.0 9.0" Properties=species:S:1:pos:R:3:momenta:R:3:forces:R:3 EPS_SCF=1e-06 energy=-1399.8884588663116 units=gap_units Integrated_spin_density=6.55109e-05 opt_dir=/home/tks32/dft_pbe/apr_8_opt_fragments_subset/singlepoint_1_CO2 time=105.0 free_energy=-1399.8884588663116 pbc="T T T"
C       -0.03987906      -0.18807592       0.19549797      -1.00114185      -0.15542046       0.00147904      -1.11439862      -2.07130204      -2.28310334
O       -1.13592830      -0.45833011      -0.20395606      -0.94139579       2.90464372       0.34051486       1.13542754       0.89375778       1.43126350
O        1.20066427      -0.24918783       0.08322894      -1.13100935      -3.41849071      -1.06443453       3.09694266       1.50877275       0.36037949
C        4.04530697       1.07084871       0.09614831       2.83205403      -0.71152701      -0.54503867      -1.41009882      -0.70649556      -0.05299995
C        4.11826848      -0.14587351      -0.15512596       1.07743407       1.60782980       1.10517099      -0.98255775      -1.28468296      -0.58695502
H        3.07822300       1.44267532      -0.40694280       0.15822522      -0.35237862       0.11101253       1.05183060       0.49717075       0.72411352
H        4.73063694       1.55657333       0.83036532       0.27733862       0.49673116      -0.27334465      -1.00276664       0.04668243      -0.63025949
H        1.63476798       0.50891380       0.65748604      -0.43999988      -0.62627028      -0.03080985       0.33718559       0.06269034       0.02288820
H        4.05495531      -1.05907295      -0.79145655      -0.83150508       0.25488240       0.35545027      -1.11156455       1.05340652       1.01467309
9
Lattice="13.0 0.0 0.0 0.0 9.0 0.0 0.0 0.0 9.0" Properties=species:S:1:pos:R:3:momenta:R:3:forces:R:3 EPS_SCF=1e-06 energy=-1400.1326635635824 units=gap_units Integrated_spin_density=6.55109e-05 opt_dir=/home/tks32/dft_pbe/apr_8_opt_fragments_subset/singlepoint_1_CO2 time=105.0 free_energy=-1400.1326635635824 pbc="T T T"
C       -0.05102305      -0.20878894       0.17266694      -1.00114185      -0.15542046       0.00147904       4.09260129      -1.05300019      -1.02058286
O       -1.12457402      -0.44939253      -0.18964342      -0.94139579       2.90464372       0.34051486      -1.67772170       0.10557680       0.29176984
O        1.23163370      -0.23410010       0.08683273      -1.13100935      -3.41849071      -1.06443453       0.61942758       0.75775081      -0.08432486
C        4.03120598       1.06378375       0.09561831       2.83205403      -0.71152701      -0.54503867      -0.94490878      -1.42983304       0.00886623
C        4.10844290      -0.15872034      -0.16099551       1.07743407       1.60782980       1.10517099      -0.84103056       0.16667006       0.13782761
H        3.08874131       1.44764703      -0.39970166       0.15822522      -0.35237862       0.11101253       0.66639775       0.70728729       0.55099932
H        4.72060927       1.55704015       0.82406273       0.27733862       0.49673116      -0.27334465      -1.01651532      -0.02527521      -0.65609365
H        1.63813984       0.50954070       0.65771492      -0.43999988      -0.62627028      -0.03080985       0.30523961       0.53617916       0.32687594
H        4.04383966      -1.04853888      -0.78130982      -0.83150508       0.25488240       0.35545027      -1.20348987       0.23464431       0.44466243
9
Lattice="13.0 0.0 0.0 0.0 9.0 0.0 0.0 0.0 9.0" Properties=species:S:1:pos:R:3:momenta:R:3:forces:R:3 EPS_SCF=1e-06 energy=-1400.4791562018206 units=gap_units Integrated_spin_density=6.55109e-05 opt_dir=/home/tks32/dft_pbe/apr_8_opt_fragments_subset/singlepoint_1_CO2 time=105.0 free_energy=-1400.4791562018206 pbc="T T T"
C       -0.01555710      -0.23913637       0.14077367      -1.00114185      -0.15542046       0.00147904       2.35376832      -0.81584388      -1.07372250
O       -1.13300562      -0.44017506      -0.17351858      -0.94139579       2.90464372       0.34051486       0.48950237       0.34461140       0.71563837
O        1.26639207      -0.21209759       0.08913875      -1.13100935      -3.41849071      -1.06443453      -0.04753260      -0.40776547      -0.98048127
C        4.00801098       1.04153051       0.09523987       2.83205403      -0.71152701      -0.54503867      -0.30503562      -0.88057981       0.51609628
C        4.09025054      -0.16842969      -0.16474594       1.07743407       1.60782980       1.10517099      -0.51902808       0.37692545       0.55526860
H        3.10561581       1.45998415      -0.38705944       0.15822522      -0.35237862       0.11101253       0.01957869       0.93581922       0.24690453
H        4.70028425       1.55717932       0.81109690       0.27733862       0.49673116      -0.27334465      -1.03020249      -0.12687125      -0.70358645
H        1.64456771       0.51606537       0.66155464      -0.43999988      -0.62627028      -0.03080985       0.28588591       1.20775569       0.87248613
H        4.02045695      -1.03644980      -0.76723466      -0.83150508       0.25488240       0.35545027      -1.24693649      -0.63405134      -0.14860369
9
Lattice="13.0 0.0 0.0 0.0 9.0 0.0 0.0 0.0 9.0" Properties=species:S:1:pos:R:3:momenta:R:3:forces:R:3 EPS_SCF=1e-06 energy=-1400.7384170956936 units=gap_units Integrated_spin_density=6.55109e-05 opt_dir=/home/tks32/dft_pbe/apr_8_opt_fragments_subset/singlepoint_1_CO2 time=105.0 free_energy=-1400.7384170956936 pbc="T T T"
C        0.04514789      -0.27642650       0.09893852      -1.00114185      -0.15542046       0.00147904      -2.38109758      -0.54338506      -1.00702421
O       -1.13460764      -0.42766488      -0.15025426      -0.94139579       2.90464372       0.34051486       3.86486002       0.52797996       1.10177751
O        1.29709329      -0.19728213       0.07922327      -1.13100935      -3.41849071      -1.06443453       0.83671664      -0.68541488      -1.20133995
C        3.98340502       1.01073345       0.10121093       2.83205403      -0.71152701      -0.54503867      -0.05017403       1.59474630       1.06642908
C        4.06752991      -0.17255846      -0.16133061       1.07743407       1.60782980       1.10517099       0.12384341      -1.82935150       0.06928050
H        3.12104231       1.48253225      -0.37266190       0.15822522      -0.35237862       0.11101253      -0.34714512       0.99308559       0.03009061
H        4.66939276       1.55575299       0.79082308       0.27733862       0.49673116      -0.27334465      -0.79864256      -0.10120095      -0.49870612
H        1.65384907       0.53670794       0.67568055      -0.43999988      -0.62627028      -0.03080985      -0.22522819       0.96659048       0.79306093
H        3.98416297      -1.03332381      -0.75638438      -0.83150508       0.25488240       0.35545027      -1.02313259      -0.92304994      -0.35356835
9
Lattice="13.0 0.0 0.0 0.0 9.0 0.0 0.0 0.0 9.0" Properties=species:S:1:pos:R:3:momenta:R:3:forces:R:3 EPS_SCF=1e-06 energy=-1401.013020119686 units=gap_units Integrated_spin_density=6.55109e-05 opt_dir=/home/tks32/dft_pbe/apr_8_opt_fragments_subset/singlepoint_1_CO2 time=105.0 free_energy=-1401.013020119686 pbc="T T T"
C        0.07122260      -0.31650518       0.04920826      -1.00114185      -0.15542046       0.00147904       1.26512819       0.67149930       0.30590595
O       -1.08969286      -0.41007293      -0.11610122      -0.94139579       2.90464372       0.34051486       1.00112593      -0.09755746       0.18427007
O        1.33476030      -0.19216935       0.05589001      -1.13100935      -3.41849071      -1.06443453      -0.50434996      -0.23355446      -0.45224814
C        3.96065785       1.00214409       0.11937604       2.83205403      -0.71152701      -0.54503867      -0.19211090      -0.94107048      -0.25784472
C        4.04856676      -0.19821629      -0.15742584       1.07743407       1.60782980       1.10517099       0.46563899       1.01187572       0.93801947
H        3.13076236       1.51473698      -0.35934319       0.15822522      -0.35237862       0.11101253      -0.32439575       0.90030713      -0.01411583
H        4.63201120       1.55325545       0.76659497       0.27733862       0.49673116      -0.27334465       0.02648082       0.32060703       0.24381319
H        1.65950082       0.56687990       0.69790614      -0.43999988      -0.62627028      -0.03080985      -1.12542184      -0.20344214      -0.12594549
H        3.93922655      -1.04158183      -0.75085996      -0.83150508       0.25488240       0.35545027      -0.61209547      -1.42866464      -0.82185452
9
Lattice="13.0 0.0 0.0 0.0 9.0 0.0 0.0 0.0 9.0" Properties=species:S:1:pos:R:3:momenta:R:3:forces:R:3 EPS_SCF=1e-06 energy=-1401.0646102105943 units=gap_units Integrated_spin_density=6.55109e-05 opt_dir=/home/tks32/dft_pbe/apr_8_opt_fragments_subset/singlepoint_1_CO2 time=105.0 free_energy=-1401.0646102105943 pbc="T T T"
C        0.11231844      -0.34321917       0.00871360      -1.00114185      -0.15542046       0.00147904       2.60215657       1.18497192       0.96941318
O       -1.03531964      -0.39559956      -0.08279583      -0.94139579       2.90464372       0.34051486      -1.42592842      -0.42998422      -0.28739437
O        1.36163287      -0.19082225       0.02858834      -1.13100935      -3.41849071      -1.06443453      -0.34051211       0.26375789       0.19917963
C        3.93750848       0.98130057       0.13213176       2.83205403      -0.71152701      -0.54503867      -0.33851747       0.64744514      -0.48022608
C        4.03798826      -0.20720862      -0.14084097       1.07743407       1.60782980       1.10517099       0.47542960      -1.25504982      -0.21223692
H        3.13499021       1.55626634      -0.34755305       0.15822522      -0.35237862       0.11101253      -0.05663686       0.43651513       0.04877270
H        4.59873679       1.55547508       0.74818703       0.27733862       0.49673116      -0.27334465       0.49875210       0.47609954       0.63660034
H        1.64890551       0.59119986       0.71615421      -0.43999988      -0.62627028      -0.03080985      -1.46015989      -1.00556601      -0.76837536
H        3.89025469      -1.06892140      -0.75733989      -0.83150508       0.25488240       0.35545027       0.04541648      -0.31818958      -0.10573311
9
Lattice="13.0 0.0 0.0 0.0 9.0 0.0 0.0 0.0 9.0" Properties=species:S:1:pos:R:3:momenta:R:3:forces:R:3 EPS_SCF=1e-06 energy=-1401.1028291017178 units=gap_units Integrated_spin_density=6.55109e-05 opt_dir=/home/tks32/dft_pbe/apr_8_opt_fragments_subset/singlepoint_1_CO2 time=105.0 free_energy=-1401.1028291017178 pbc="T T T"
C        0.11882383      -0.34025674       0.01113713      -1.00114185      -0.15542046       0.00147904       1.03025811       1.00910743       0.84010458
O       -1.03888446      -0.39667452      -0.08351432      -0.94139579       2.90464372       0.34051486      -0.42557810      -0.36475539      -0.19718682
O        1.36078159      -0.19016285       0.02908629      -1.13100935      -3.41849071      -1.06443453       0.14419044       0.22063755       0.10049721
C        3.93666218       0.98291918       0.13093120       2.83205403      -0.71152701      -0.54503867      -0.18038138       0.18066034      -0.49745616
C        4.03917683      -0.21034625      -0.14137156       1.07743407       1.60782980       1.10517099       0.42798183      -0.65552690      -0.04079049
H        3.13484862       1.55735763      -0.34743111       0.15822522      -0.35237862       0.11101253      -0.09635705       0.43349930       0.03122235
H        4.59998367       1.55666532       0.74977853       0.27733862       0.49673116      -0.27334465       0.42718974       0.40716299       0.55980162
H        1.64525511       0.58868595       0.71423328      -0.43999988      -0.62627028      -0.03080985      -1.35000066      -0.85206293      -0.64381848
H        3.89036823      -1.06971688      -0.75760422      -0.83150508       0.25488240       0.35545027       0.02269707      -0.37872239      -0.15237381
9
Lattice="13.0 0.0 0.0 0.0 9.0 0.0 0.0 0.0 9.0" Properties=species:S:1:pos:R:3:momenta:R:3:forces:R:3 EPS_SCF=1e-06 energy=-1401.13315068036 units=gap_units Integrated_spin_density=6.55109e-05 opt_dir=/home/tks32/dft_pbe/apr_8_opt_fragments_subset/singlepoint_1_CO2 time=105.0 free_energy=-1401.13315068036 pbc="T T T"
C        0.12764977      -0.33468046       0.01574103      -1.00114185      -0.15542046       0.00147904      -1.07424062       0.71906229       0.63481669
O       -1.04332009      -0.39869388      -0.08472961      -0.94139579       2.90464372       0.34051486       0.84002013      -0.25900094      -0.06736206
O        1.36043126      -0.18893312       0.02982426      -1.13100935      -3.41849071      -1.06443453       0.81696519       0.12181863      -0.07432989
C        3.93538033       0.98489692       0.12841611       2.83205403      -0.71152701      -0.54503867       0.08157080      -0.36424094      -0.45472266
C        4.04148077      -0.21506054      -0.14196672       1.07743407       1.60782980       1.10517099       0.35836997       0.09717652       0.16144307
H        3.13444331       1.55958992      -0.34723134       0.15822522      -0.35237862       0.11101253      -0.15491611       0.41815921       0.00452470
H        4.60233780       1.55891074       0.75282525       0.27733862       0.49673116      -0.27334465       0.28464194       0.27434782       0.41155450
H        1.63807657       0.58396622       0.71064777      -0.43999988      -0.62627028      -0.03080985      -1.14273583      -0.56695721      -0.41459492
H        3.89053587      -1.07152498      -0.75828154      -0.83150508       0.25488240       0.35545027      -0.00967549      -0.44036538      -0.20132944
9
Lattice="13.0 0.0 0.0 0.0 9.0 0.0 0.0 0.0 9.0" Properties=species:S:1:pos:R:3:momenta:R:3:forces:R:3 EPS_SCF=1e-06 energy=-1401.1550144411733 units=gap_units Integrated_spin_density=6.55109e-05 opt_dir=/home/tks32/dft_pbe/apr_8_opt_fragments_subset/singlepoint_1_CO2 time=105.0 free_energy=-1401.1550144411733 pbc="T T T"
C        0.13216834      -0.32736937       0.02190839      -1.00114185      -0.15542046       0.00147904      -2.08743082       0.45779197       0.44284720
O       -1.04463411      -0.40133701      -0.08603813      -0.94139579       2.90464372       0.34051486       1.41180177      -0.16439289       0.02549688
O        1.36272051      -0.18743798       0.03025147      -1.13100935      -3.41849071      -1.06443453       1.05754941      -0.05066031      -0.27040421
C        3.93448672       0.98551566       0.12470284       2.83205403      -0.71152701      -0.54503867       0.33662332      -0.57241322      -0.30068131
C        4.04469684      -0.21899359      -0.14198768       1.07743407       1.60782980       1.10517099       0.29820751       0.49083531       0.22843289
H        3.13358464       1.56293212      -0.34703711       0.15822522      -0.35237862       0.11101253      -0.19077248       0.37608760      -0.01372982
H        4.60536399       1.56180625       0.75687937       0.27733862       0.49673116      -0.27334465       0.09149495       0.09991800       0.21728764
H        1.62797275       0.57791095       0.70609905      -0.43999988      -0.62627028      -0.03080985      -0.88764688      -0.21764613      -0.13903747
H        3.89065590      -1.07455619      -0.75953299      -0.83150508       0.25488240       0.35545027      -0.02982678      -0.41952034      -0.19021180
9
Lattice="13.0 0.0 0.0 0.0 9.0 0.0 0.0 0.0 9.0" Properties=species:S:1:pos:R:3:momenta:R:3:forces:R:3 EPS_SCF=1e-06 energy=-1401.188783134007 units=gap_units Integrated_spin_density=6.55109e-05 opt_dir=/home/tks32/dft_pbe/apr_8_opt_fragments_subset/singlepoint_1_CO2 time=105.0 free_energy=-1401.188783134007 pbc="T T T"
C        0.12973102      -0.31936300       0.02883884      -1.00114185      -0.15542046       0.00147904      -1.39638191       0.31674022       0.31441740
O       -1.04141781      -0.40422806      -0.08713635      -0.94139579       2.90464372       0.34051486       0.98983056      -0.12228547       0.04077446
O        1.36807597      -0.18625021       0.02979342      -1.13100935      -3.41849071      -1.06443453       0.61088732      -0.26252999      -0.42542115
C        3.93473132       0.98428900       0.12042402       2.83205403      -0.71152701      -0.54503867       0.48299785      -0.38106343      -0.08392986
C        4.04852045      -0.22100399      -0.14129479       1.07743407       1.60782980       1.10517099       0.25903810       0.40342213       0.12515619
H        3.13221743       1.56711191      -0.34690509       0.15822522      -0.35237862       0.11101253      -0.17305234       0.29962909      -0.00907132
H        4.60837263       1.56472354       0.76120511       0.27733862       0.49673116      -0.27334465      -0.10413499      -0.07484407       0.02384362
H        1.61611357       0.57178307       0.70157198      -0.43999988      -0.62627028      -0.03080985      -0.64153123       0.11487228       0.11642158
H        3.89067100      -1.07859142      -0.76125195      -0.83150508       0.25488240       0.35545027      -0.02765336      -0.29394077      -0.10219093
9
Lattice="13.0 0.0 0.0 0.0 9.0 0.0 0.0 0.0 9.0" Properties=species:S:1:pos:R:3:momenta:R:3:forces:R:3 EPS_SCF=1e-06 energy=-1401.2105994890912 units=gap_units Integrated_spin_density=6.55109e-05 opt_dir=/home/tks32/dft_pbe/apr_8_opt_fragments_subset/singlepoint_1_CO2 time=105.0 free_energy=-1401.2105994890912 pbc="T T T"
C        0.12268689      -0.31105702       0.03616842      -1.00114185      -0.15542046       0.00147904       0.39206184       0.26510036       0.23834848
O       -1.03508482      -0.40725477      -0.08798311      -0.94139579       2.90464372       0.34051486      -0.13235468      -0.14001291      -0.01513737
O        1.37501789      -0.18609316       0.02790342      -1.13100935      -3.41849071      -1.06443453      -0.18202526      -0.41744877      -0.48813539
C        3.93662923       0.98186132       0.11628155       2.83205403      -0.71152701      -0.54503867       0.47169820       0.06934151       0.11562007
C        4.05286151      -0.22141200      -0.14023643       1.07743407       1.60782980       1.10517099       0.23377683      -0.02478639      -0.09043283
H        3.13038582       1.57191454      -0.34681777       0.15822522      -0.35237862       0.11101253      -0.09369669       0.18555969       0.02364535
H        4.61071869       1.56708912       0.76518110       0.27733862       0.49673116      -0.27334465      -0.25572456      -0.21229683      -0.12638492
H        1.60321186       0.56666700       0.69790203      -0.43999988      -0.62627028      -0.03080985      -0.42577140       0.37156714       0.30502318
H        3.89058852      -1.08324418      -0.76315399      -0.83150508       0.25488240       0.35545027      -0.00796427      -0.09702380       0.03745342
9
Lattice="13.0 0.0 0.0 0.0 9.0 0.0 0.0 0.0 9.0" Properties=species:S:1:pos:R:3:momenta:R:3:forces:R:3 EPS_SCF=1e-06 energy=-1401.2106899477535 units=gap_units Integrated_spin_density=6.55109e-05 opt_dir=/home/tks32/dft_pbe/apr_8_opt_fragments_subset/singlepoint_1_CO2 time=105.0 free_energy=-1401.2106899477535 pbc="T T T"
C        0.11807585      -0.30241276       0.04381598      -1.00114185      -0.15542046       0.00147904       1.57950892       0.15610282       0.11900225
O       -1.02996871      -0.41059616      -0.08881195      -0.94139579       2.90464372       0.34051486      -0.93927776      -0.14974582      -0.04853730
O        1.38046303      -0.18779243       0.02405013      -1.13100935      -3.41849071      -1.06443453      -0.64403362      -0.39323380      -0.42373572
C        3.94041716       0.97998215       0.11306311       2.83205403      -0.71152701      -0.54503867       0.31592708       0.40079495       0.18460884
C        4.05779924      -0.22188850      -0.13968265       1.07743407       1.60782980       1.10517099       0.19189925      -0.37197329      -0.27088793
H        3.12832424       1.57705506      -0.34663494       0.15822522      -0.35237862       0.11101253       0.03147282       0.04109161       0.07808112
H        4.61170260       1.56828208       0.76820223       0.27733862       0.49673116      -0.27334465      -0.31779287      -0.27388898      -0.19255060
H        1.58972300       0.56370086       0.69594399      -0.43999988      -0.62627028      -0.03080985      -0.23050431       0.50454518       0.39046637
H        3.89047918      -1.08785946      -0.76470069      -0.83150508       0.25488240       0.35545027       0.01280048       0.08630733       0.16355297
9
Lattice="13.0 0.0 0.0 0.0 9.0 0.0 0.0 0.0 9.0" Properties=species:S:1:pos:R:3:momenta:R:3:forces:R:3 EPS_SCF=1e-06 energy=-1401.2138867306587 units=gap_units Integrated_spin_density=6.55109e-05 opt_dir=/home/tks32/dft_pbe/apr_8_opt_fragments_subset/singlepoint_1_CO2 time=105.0 free_energy=-1401.2138867306587 pbc="T T T"
C        0.11906305      -0.30231519       0.04389035      -1.00114185      -0.15542046       0.00147904       1.34871798       0.13135624       0.09945241
O       -1.03055576      -0.41068975      -0.08884228      -0.94139579       2.90464372       0.34051486      -0.78827614      -0.13546483      -0.03087975
O        1.38006051      -0.18803820       0.02378529      -1.13100935      -3.41849071      -1.06443453      -0.56283613      -0.36865586      -0.41047598
C        3.94061461       0.98023264       0.11317849       2.83205403      -0.71152701      -0.54503867       0.30690196       0.33968162       0.15997988
C        4.05791918      -0.22212099      -0.13985196       1.07743407       1.60782980       1.10517099       0.18609148      -0.30886677      -0.25011798
H        3.12834391       1.57708075      -0.34658614       0.15822522      -0.35237862       0.11101253       0.03344987       0.03900334       0.07923772
H        4.61150397       1.56811090       0.76808189       0.27733862       0.49673116      -0.27334465      -0.30595381      -0.26369007      -0.18143059
H        1.58957894       0.56401620       0.69618803      -0.43999988      -0.62627028      -0.03080985      -0.22905248       0.49079467       0.37913313
H        3.89048718      -1.08780552      -0.76459847      -0.83150508       0.25488240       0.35545027       0.01095725       0.07584166       0.15510117
9
Lattice="13.0 0.0 0.0 0.0 9.0 0.0 0.0 0.0 9.0" Properties=species:S:1:pos:R:3:momenta:R:3:forces:R:3 EPS_SCF=1e-06 energy=-1401.2187868802894 units=gap_units Integrated_spin_density=6.55109e-05 opt_dir=/home/tks32/dft_pbe/apr_8_opt_fragments_subset/singlepoint_1_CO2 time=105.0 free_energy=-1401.2187868802894 pbc="T T T"
C        0.12089039      -0.30213595       0.04402652      -1.00114185      -0.15542046       0.00147904       0.92234525       0.08552022       0.06360115
O       -1.03163284      -0.41086828      -0.08889108      -0.94139579       2.90464372       0.34051486      -0.51241605      -0.10931747       0.00139127
O        1.37930644      -0.18851602       0.02326120      -1.13100935      -3.41849071      -1.06443453      -0.40903367      -0.32072602      -0.38401935
C        3.94100596       0.98069455       0.11339370       2.83205403      -0.71152701      -0.54503867       0.28826729       0.22746202       0.11335765
C        4.05815666      -0.22254523      -0.14017844       1.07743407       1.60782980       1.10517099       0.17541238      -0.19356883      -0.21180401
H        3.12838490       1.57713101      -0.34648706       0.15822522      -0.35237862       0.11101253       0.03749798       0.03489568       0.08153560
H        4.61111224       1.56777328       0.76784728       0.27733862       0.49673116      -0.27334465      -0.28293417      -0.24387031      -0.15974502
H        1.58928983       0.56464166       0.69667159      -0.43999988      -0.62627028      -0.03080985      -0.22670242       0.46330030       0.35638105
H        3.89050201      -1.08770418      -0.76439850      -0.83150508       0.25488240       0.35545027       0.00756342       0.05630441       0.13930165
9
Lattice="13.0 0.0 0.0 0.0 9.0 0.0 0.0 0.0 9.0" Properties=species:S:1:pos:R:3:momenta:R:3:forces:R:3 EPS_SCF=1e-06 energy=-1401.2232414891905 units=gap_units Integrated_spin_density=6.55109e-05 opt_dir=/home/tks32/dft_pbe/apr_8_opt_fragments_subset/singlepoint_1_CO2 time=105.0 free_energy=-1401.2232414891905 pbc="T T T"
C        0.12327443      -0.30190606       0.04420006      -1.00114185      -0.15542046       0.00147904       0.36857108       0.02568459       0.01737471
O       -1.03301300      -0.41111660      -0.08893388      -0.94139579       2.90464372       0.34051486      -0.16031147      -0.07580917       0.04266130
O        1.37829986      -0.18920318       0.02248165      -1.13100935      -3.41849071      -1.06443453      -0.20107402      -0.25138150      -0.34387717
C        3.94158928       0.98129262       0.11367827       2.83205403      -0.71152701      -0.54503867       0.25868264       0.08238725       0.04947393
C        4.05851102      -0.22308223      -0.14064208       1.07743407       1.60782980       1.10517099       0.16153393      -0.04620787      -0.16195631
H        3.12845185       1.57720423      -0.34633252       0.15822522      -0.35237862       0.11101253       0.04386870       0.02888050       0.08494678
H        4.61053285       1.56727391       0.76750807       0.27733862       0.49673116      -0.27334465      -0.24983917      -0.21539423      -0.12840004
H        1.58884789       0.56557599       0.69739249      -0.43999988      -0.62627028      -0.03080985      -0.22465318       0.42148945       0.32153708
H        3.89052142      -1.08756783      -0.76410686      -0.83150508       0.25488240       0.35545027       0.00322149       0.03035097       0.11823970
9
Lattice="13.0 0.0 0.0 0.0 9.0 0.0 0.0 0.0 9.0" Properties=species:S:1:pos:R:3:momenta:R:3:forces:R:3 EPS_SCF=1e-06 energy=-1401.225709977507 units=gap_units Integrated_spin_density=6.55109e-05 opt_dir=/home/tks32/dft_pbe/apr_8_opt_fragments_subset/singlepoint_1_CO2 time=105.0 free_energy=-1401.225709977507 pbc="T T T"
C        0.12578636      -0.30167364       0.04437352      -1.00114185      -0.15542046       0.00147904      -0.20875627      -0.03734129      -0.03107493
O       -1.03441447      -0.41141543      -0.08893001      -0.94139579       2.90464372       0.34051486       0.19882164      -0.04139664       0.08504084
O        1.37719411      -0.19007146       0.02143831      -1.13100935      -3.41849071      -1.06443453       0.02850371      -0.16272113      -0.28800276
C        3.94237134       0.98191276       0.11398354       2.83205403      -0.71152701      -0.54503867       0.21578152      -0.07026624      -0.02518214
C        4.05899049      -0.22361145      -0.14122031       1.07743407       1.60782980       1.10517099       0.14667624       0.10484739      -0.10920144
H        3.12855570       1.57729882      -0.34610901       0.15822522      -0.35237862       0.11101253       0.05305140       0.02111430       0.08939798
H        4.60976310       1.56661042       0.76707517       0.27733862       0.49673116      -0.27334465      -0.20804251      -0.17944392      -0.08847497
H        1.58822688       0.56683578       0.69836086      -0.43999988      -0.62627028      -0.03080985      -0.22496947       0.36327889       0.27252384
H        3.89054209      -1.08741496      -0.76372686      -0.83150508       0.25488240       0.35545027      -0.00106625       0.00192863       0.09497357
9
Lattice="13.0 0.0 0.0 0.0 9.0 0.0 0.0 0.0 9.0" Properties=species:S:1:pos:R:3:momenta:R:3:forces:R:3 EPS_SCF=1e-06 energy=-1401.2263567794723 units=gap_units Integrated_spin_density=6.55109e-05 opt_dir=/home/tks32/dft_pbe/apr_8_opt_fragments_subset/singlepoint_1_CO2 time=105.0 free_energy=-1401.2263567794723 pbc="T T T"
C        0.12780830      -0.30150718       0.04449408      -1.00114185      -0.15542046       0.00147904      -0.66078437      -0.08788393      -0.07095420
O       -1.03544837      -0.41173172      -0.08882924      -0.94139579       2.90464372       0.34051486       0.47328288      -0.01475191       0.11810530
O        1.37623153      -0.19103904       0.02016986      -1.13100935      -3.41849071      -1.06443453       0.22442423      -0.06171467      -0.21619980
C        3.94332204       0.98239051       0.11422948       2.83205403      -0.71152701      -0.54503867       0.15943882      -0.19620930      -0.09950613
C        4.05958979      -0.22396782      -0.14186563       1.07743407       1.60782980       1.10517099       0.13378334       0.22177511      -0.06563908
H        3.12870986       1.57740811      -0.34580560       0.15822522      -0.35237862       0.11101253       0.06500119       0.01231742       0.09439626
H        4.60883235       1.56580801       0.76658436       0.27733862       0.49673116      -0.27334465      -0.16131646      -0.13923681      -0.04332405
H        1.58741063       0.56838514       0.69954413      -0.43999988      -0.62627028      -0.03080985      -0.22999635       0.28875093       0.20900946
H        3.89055947      -1.08727516      -0.76327623      -0.83150508       0.25488240       0.35545027      -0.00383328      -0.02304683       0.07411225
9
Lattice="13.0 0.0 0.0 0.0 9.0 0.0 0.0 0.0 9.0" Properties=species:S:1:pos:R:3:momenta:R:3:forces:R:3 EPS_SCF=1e-06 energy=-1401.226538673933 units=gap_units Integrated_spin_density=6.55109e-05 opt_dir=/home/tks32/dft_pbe/apr_8_opt_fragments_subset/singlepoint_1_CO2 time=105.0 free_energy=-1401.226538673933 pbc="T T T"
C        0.12770505      -0.30152091       0.04448299      -1.00114185      -0.15542046       0.00147904      -0.63450547      -0.08523357      -0.06936401
O       -1.03537442      -0.41173403      -0.08881079      -0.94139579       2.90464372       0.34051486       0.45708328      -0.01627153       0.11633947