9
Lattice="13.0 0.0 0.0 0.0 9.0 0.0 0.0 0.0 9.0" Properties=species:S:1:pos:R:3:momenta:R:3:forces:R:3 EPS_SCF=1e-06 energy=-1399.6618865172804 units=gap_units Integrated_spin_density=6.55109e-05 opt_dir=/home/tks32/dft_pbe/apr_8_opt_fragments_subset/singlepoint_1_CO2 time=110.0 free_energy=-1399.6618865172804 pbc="T T T"
C       -0.08317300      -0.21392849       0.18461115      -0.61071428      -1.07952740      -0.44523508       3.94845891      -1.51943611      -1.01274211
O       -1.16349776      -0.36382058      -0.18648534      -1.42323369       3.06627826       0.54149968      -2.98001057       0.04555014      -0.17225978
O        1.18095332      -0.34749197       0.04371435      -0.21515824      -2.86260137      -1.07929493      -0.24531430       2.62377266       2.16446342
C        4.15694368       1.06252992       0.08115662       2.40682566       0.78314448      -0.05283930      -1.00854225       4.00013439       0.79382344
C        4.15332457      -0.12075132      -0.11784811       0.65870190      -0.68421157       0.44553822      -1.12669982      -5.74216168      -0.67832658
H        3.17969005       1.36947062      -0.33655104       0.09531973       0.07646244       0.10275833      -0.34888106       1.25863794      -0.17636803
H        4.74627516       1.76920646       0.65980482      -0.02791127       0.40869695      -0.33794437       0.29518276      -0.01860125       0.05844817
H        1.55835391       0.38229303       0.74655387       0.15595102       0.06778897       0.36307006       0.15822134      -0.37235134      -0.72213280
H        3.53263284      -0.90382530      -0.56630564      -1.03978084       0.22396924       0.46244739       1.30758499      -0.27554475      -0.25490574
9
Lattice="13.0 0.0 0.0 0.0 9.0 0.0 0.0 0.0 9.0" Properties=species:S:1:pos:R:3:momenta:R:3:forces:R:3 EPS_SCF=1e-06 energy=-1399.76331686505 units=gap_units Integrated_spin_density=6.55109e-05 opt_dir=/home/tks32/dft_pbe/apr_8_opt_fragments_subset/singlepoint_1_CO2 time=110.0 free_energy=-1399.76331686505 pbc="T T T"
C       -0.04368841      -0.22912285       0.17448373      -0.61071428      -1.07952740      -0.44523508      -4.04852823      -1.61425968      -2.14870755
O       -1.19329787      -0.36336508      -0.18820794      -1.42323369       3.06627826       0.54149968       2.24459844       0.59563195       1.42268351
O        1.17850018      -0.32125424       0.06535898      -0.21515824      -2.86260137      -1.07929493       2.19214704       0.96392303       0.58489696
C        4.14685826       1.10253126       0.08909485       2.40682566       0.78314448      -0.05283930      -1.55636158      -4.00368211      -1.11849252
C        4.14205757      -0.17817294      -0.12463138       0.65870190      -0.68421157       0.44553822       0.27205051       3.41226316       1.76928916
H        3.17620124       1.38205700      -0.33831472       0.09531973       0.07646244       0.10275833      -0.28338341       1.32254375      -0.08205659
H        4.74922699       1.76902045       0.66038930      -0.02791127       0.40869695      -0.33794437       0.75894194       0.49798146       0.53998206
H        1.55993612       0.37856952       0.73933254       0.15595102       0.06778897       0.36307006       0.72107424       0.64949189       0.25499645
H        3.54570869      -0.90658075      -0.56885470      -1.03978084       0.22396924       0.46244739      -0.30053896      -1.82389344      -1.22259149
9
Lattice="13.0 0.0 0.0 0.0 9.0 0.0 0.0 0.0 9.0" Properties=species:S:1:pos:R:3:momenta:R:3:forces:R:3 EPS_SCF=1e-06 energy=-1399.93578692642 units=gap_units Integrated_spin_density=6.55109e-05 opt_dir=/home/tks32/dft_pbe/apr_8_opt_fragments_subset/singlepoint_1_CO2 time=110.0 free_energy=-1399.93578692642 pbc="T T T"
C       -0.05380973      -0.23315850       0.16911196      -0.61071428      -1.07952740      -0.44523508      -1.67862803      -1.45208886      -1.74112535
O       -1.18768637      -0.36187600      -0.18465123      -1.42323369       3.06627826       0.54149968       0.98001386       0.42203889       1.00136359
O        1.18398054      -0.31884444       0.06682123      -0.21515824      -2.86260137      -1.07929493       1.14639078       1.01713340       0.65507981
C        4.14296735       1.09252206       0.08629862       2.40682566       0.78314448      -0.05283930      -1.18411407      -3.50327151      -0.74060930
C        4.14273770      -0.16964228      -0.12020815       0.65870190      -0.68421157       0.44553822      -0.11734594       2.81989759       1.42263177
H        3.17549278       1.38536336      -0.33851986       0.09531973       0.07646244       0.10275833      -0.30639642       1.31600723      -0.12718709
H        4.75112434       1.77026540       0.66173926      -0.02791127       0.40869695      -0.33794437       0.47003791       0.18901173       0.27121938
H        1.56173881       0.38019325       0.73997003       0.15595102       0.06778897       0.36307006       0.59127441       0.61541449       0.22331510
H        3.54495734      -0.91114048      -0.57191118      -1.03978084       0.22396924       0.46244739       0.09876749      -1.42414297      -0.96468790
9
Lattice="13.0 0.0 0.0 0.0 9.0 0.0 0.0 0.0 9.0" Properties=species:S:1:pos:R:3:momenta:R:3:forces:R:3 EPS_SCF=1e-06 energy=-1400.0876121913334 units=gap_units Integrated_spin_density=6.55109e-05 opt_dir=/home/tks32/dft_pbe/apr_8_opt_fragments_subset/singlepoint_1_CO2 time=110.0 free_energy=-1400.0876121913334 pbc="T T T"
C       -0.06768972      -0.24091754       0.15932894      -0.61071428      -1.07952740      -0.44523508       1.78097244      -1.13231384      -1.01820208
O       -1.17985074      -0.35933636      -0.17860423      -1.42323369       3.06627826       0.54149968      -1.07134893       0.14871489       0.32526574
O        1.19217102      -0.31378483       0.06999904      -0.21515824      -2.86260137      -1.07929493      -0.15635904       1.00735236       0.65464028
C        4.13610019       1.07355718       0.08167714       2.40682566       0.78314448      -0.05283930      -0.62772126      -0.91551095       0.14254472
C        4.14301630      -0.15395030      -0.11218401       0.65870190      -0.68421157       0.44553822      -0.74588854       0.06876911       0.55108838
H        3.17398436       1.39207929      -0.33906597       0.09531973       0.07646244       0.10275833      -0.32149399       1.28985243      -0.19000091
H        4.75416785       1.77192305       0.66372505      -0.02791127       0.40869695      -0.33794437       0.00121417      -0.32082339      -0.15958331
H        1.56504168       0.38340366       0.74117846       0.15595102       0.06778897       0.36307006       0.39809055       0.59705112       0.21250608
H        3.54456184      -0.91929178      -0.57740373      -1.03978084       0.22396924       0.46244739       0.74253461      -0.74309172      -0.51825891
9
Lattice="13.0 0.0 0.0 0.0 9.0 0.0 0.0 0.0 9.0" Properties=species:S:1:pos:R:3:momenta:R:3:forces:R:3 EPS_SCF=1e-06 energy=-1400.0652392480658 units=gap_units Integrated_spin_density=6.55109e-05 opt_dir=/home/tks32/dft_pbe/apr_8_opt_fragments_subset/singlepoint_1_CO2 time=110.0 free_energy=-1400.0652392480658 pbc="T T T"
C       -0.07391345      -0.25188594       0.14694059      -0.61071428      -1.07952740      -0.44523508       3.88860401      -0.80094416      -0.44523088
O       -1.17656936      -0.35652727      -0.17201714      -1.42323369       3.06627826       0.54149968      -2.33929961      -0.03230997      -0.09876650
O        1.19899212      -0.30568573       0.07516312      -0.21515824      -2.86260137      -1.07929493      -0.86231388       0.82110118       0.46070407
C        4.12771043       1.05326658       0.07801950       2.40682566       0.78314448      -0.05283930      -0.25418288       3.79038187       1.23260485
C        4.14064184      -0.13958548      -0.10302269       0.65870190      -0.68421157       0.44553822      -1.25454493      -4.74976198      -0.58723385
H        3.17149527       1.40266335      -0.34022618       0.09531973       0.07646244       0.10275833      -0.27009908       1.22270552      -0.22012169
H        4.75691128       1.77228577       0.66495059      -0.02791127       0.40869695      -0.33794437      -0.41338702      -0.78081197      -0.52284533
H        1.56941537       0.38839440       0.74301397       0.15595102       0.06778897       0.36307006       0.23458431       0.64672843       0.27673052
H        3.54681928      -0.92924331      -0.58417108      -1.03978084       0.22396924       0.46244739       1.27063909      -0.11708892      -0.09584119
9
Lattice="13.0 0.0 0.0 0.0 9.0 0.0 0.0 0.0 9.0" Properties=species:S:1:pos:R:3:momenta:R:3:forces:R:3 EPS_SCF=1e-06 energy=-1400.1046493185768 units=gap_units Integrated_spin_density=6.55109e-05 opt_dir=/home/tks32/dft_pbe/apr_8_opt_fragments_subset/singlepoint_1_CO2 time=110.0 free_energy=-1400.1046493185768 pbc="T T T"
C       -0.07148308      -0.25238653       0.14666232      -0.61071428      -1.07952740      -0.44523508       3.40112159      -0.82022501      -0.53356835
O       -1.17803143      -0.35654746      -0.17207887      -1.42323369       3.06627826       0.54149968      -1.99173337      -0.00104042       0.00094885
O        1.19845318      -0.30517255       0.07545106      -0.21515824      -2.86260137      -1.07929493      -0.72400838       0.79207469       0.43376967
C        4.12755156       1.05563557       0.07878988       2.40682566       0.78314448      -0.05283930      -0.29944221       2.97181770       1.05839309
C        4.13985775      -0.14255408      -0.10338971       0.65870190      -0.68421157       0.44553822      -1.19758763      -3.89020233      -0.40709035
H        3.17132645       1.40342754      -0.34036376       0.09531973       0.07646244       0.10275833      -0.25713492       1.21821753      -0.21073631
H        4.75665291       1.77179776       0.66462381      -0.02791127       0.40869695      -0.33794437      -0.37317473      -0.73167230      -0.48102580
H        1.56956198       0.38879861       0.74318692       0.15595102       0.06778897       0.36307006       0.24740898       0.65659189       0.28606771
H        3.54761343      -0.92931649      -0.58423098      -1.03978084       0.22396924       0.46244739       1.19455067      -0.19556176      -0.14675852
9
Lattice="13.0 0.0 0.0 0.0 9.0 0.0 0.0 0.0 9.0" Properties=species:S:1:pos:R:3:momenta:R:3:forces:R:3 EPS_SCF=1e-06 energy=-1400.1610884045697 units=gap_units Integrated_spin_density=6.55109e-05 opt_dir=/home/tks32/dft_pbe/apr_8_opt_fragments_subset/singlepoint_1_CO2 time=110.0 free_energy=-1400.1610884045697 pbc="T T T"
C       -0.06691939      -0.25341015       0.14603908      -0.61071428      -1.07952740      -0.44523508       2.49257189      -0.85151999      -0.68940833
O       -1.18073890      -0.35656636      -0.17213376      -1.42323369       3.06627826       0.54149968      -1.35783798       0.05402248       0.17997984
O        1.19746226      -0.30415726       0.07601328      -0.21515824      -2.86260137      -1.07929493      -0.45132422       0.73688515       0.38140956
C        4.12719937       1.05984406       0.08022272       2.40682566       0.78314448      -0.05283930      -0.38868096       1.61633522       0.75865617
C        4.13831532      -0.14794389      -0.10400446       0.65870190      -0.68421157       0.44553822      -1.08851743      -2.45740892      -0.09672670
H        3.17099486       1.40496648      -0.34063482       0.09531973       0.07646244       0.10275833      -0.23193463       1.20870344      -0.19298450
H        4.75615965       1.77084734       0.66399362      -0.02791127       0.40869695      -0.33794437      -0.29827426      -0.64156481      -0.40333629
H        1.56986680       0.38962115       0.74354246       0.15595102       0.06778897       0.36307006       0.27046888       0.67486737       0.30367247
H        3.54916279      -0.92951899      -0.58438743      -1.03978084       0.22396924       0.46244739       1.05352872      -0.34031994      -0.24126223
9
Lattice="13.0 0.0 0.0 0.0 9.0 0.0 0.0 0.0 9.0" Properties=species:S:1:pos:R:3:momenta:R:3:forces:R:3 EPS_SCF=1e-06 energy=-1400.2073795077526 units=gap_units Integrated_spin_density=6.55109e-05 opt_dir=/home/tks32/dft_pbe/apr_8_opt_fragments_subset/singlepoint_1_CO2 time=110.0 free_energy=-1400.2073795077526 pbc="T T T"
C       -0.06077727      -0.25502654       0.14491536      -0.61071428      -1.07952740      -0.44523508       1.29004577      -0.88214643      -0.87644304
O       -1.18428408      -0.35653927      -0.17203624      -1.42323369       3.06627826       0.54149968      -0.54634546       0.11986045       0.40267639
O        1.19620201      -0.30264195       0.07683064      -0.21515824      -2.86260137      -1.07929493      -0.05976571       0.66118666       0.30715054
C        4.12656509       1.06495118       0.08213159       2.40682566       0.78314448      -0.05283930      -0.51530973       0.13944716       0.40902087
C        4.13603853      -0.15480081      -0.10463670       0.65870190      -0.68421157       0.44553822      -0.94038414      -0.87623866       0.26559946
H        3.17050710       1.40733824      -0.34103631       0.09531973       0.07646244       0.10275833      -0.19571593       1.19329550      -0.16874165
H        4.75547221       1.76946822       0.66309719      -0.02791127       0.40869695      -0.33794437      -0.20007195      -0.52578324      -0.30140638
H        1.57036193       0.39091236       0.74411034       0.15595102       0.06778897       0.36307006       0.29824820       0.69837141       0.32699068
H        3.55141726      -0.92997906      -0.58472519      -1.03978084       0.22396924       0.46244739       0.86929895      -0.52799286      -0.36484687
9
Lattice="13.0 0.0 0.0 0.0 9.0 0.0 0.0 0.0 9.0" Properties=species:S:1:pos:R:3:momenta:R:3:forces:R:3 EPS_SCF=1e-06 energy=-1400.2308084240751 units=gap_units Integrated_spin_density=6.55109e-05 opt_dir=/home/tks32/dft_pbe/apr_8_opt_fragments_subset/singlepoint_1_CO2 time=110.0 free_energy=-1400.2308084240751 pbc="T T T"
C       -0.05393349      -0.25738111       0.14301002      -0.61071428      -1.07952740      -0.44523508      -0.00067081      -0.89561209      -1.04685101
O       -1.18803204      -0.35639263      -0.17153773      -1.42323369       3.06627826       0.54149968       0.29125754       0.17932726       0.62130654
O        1.19500681      -0.30060374       0.07787956      -0.21515824      -2.86260137      -1.07929493       0.40167741       0.57457383       0.21872720
C        4.12546861       1.06968983       0.08426679       2.40682566       0.78314448      -0.05283930      -0.66133693      -1.08219237       0.08766809
C        4.13303020      -0.16186582      -0.10493480       0.65870190      -0.68421157       0.44553822      -0.77987087       0.46180615       0.59718715
H        3.16986847       1.41069001      -0.34156978       0.09531973       0.07646244       0.10275833      -0.15014419       1.17094648      -0.14088658
H        4.75464944       1.76769070       0.66198295      -0.02791127       0.40869695      -0.33794437      -0.09761314      -0.40701428      -0.19345684
H        1.57111177       0.39278681       0.74495497       0.15595102       0.06778897       0.36307006       0.32090486       0.72101998       0.35068498
H        3.55433299      -0.93093169      -0.58540133      -1.03978084       0.22396924       0.46244739       0.67579613      -0.72285496      -0.49437954
9
Lattice="13.0 0.0 0.0 0.0 9.0 0.0 0.0 0.0 9.0" Properties=species:S:1:pos:R:3:momenta:R:3:forces:R:3 EPS_SCF=1e-06 energy=-1400.2400956407475 units=gap_units Integrated_spin_density=6.55109e-05 opt_dir=/home/tks32/dft_pbe/apr_8_opt_fragments_subset/singlepoint_1_CO2 time=110.0 free_energy=-1400.2400956407475 pbc="T T T"
C       -0.04777481      -0.26047040       0.14016120      -0.61071428      -1.07952740      -0.44523508      -1.07277114      -0.87821201      -1.15085018
O       -1.19108969      -0.35606639      -0.17041603      -1.42323369       3.06627826       0.54149968       0.96525921       0.21457511       0.78148844
O        1.19436626      -0.29814693       0.07906053      -0.21515824      -2.86260137      -1.07929493       0.82096436       0.49349157       0.13279139
C        4.12376538       1.07278231       0.08628344       2.40682566       0.78314448      -0.05283930      -0.79393359      -1.84900916      -0.14583274
C        4.12947789      -0.16772407      -0.10455617       0.65870190      -0.68421157       0.44553822      -0.64666514       1.33539278       0.83339633
H        3.16913106       1.41497506      -0.34220251       0.09531973       0.07646244       0.10275833      -0.10011351       1.14257435      -0.11422371
H        4.75380321       1.76565003       0.66077058      -0.02791127       0.40869695      -0.33794437      -0.01636720      -0.31312426      -0.10348783
H        1.57213425       0.39525487       0.74609503       0.15595102       0.06778897       0.36307006       0.32605267       0.73385488       0.36624384
H        3.55768921      -0.93257210      -0.58654539      -1.03978084       0.22396924       0.46244739       0.51757434      -0.87954324      -0.59952554
9
Lattice="13.0 0.0 0.0 0.0 9.0 0.0 0.0 0.0 9.0" Properties=species:S:1:pos:R:3:momenta:R:3:forces:R:3 EPS_SCF=1e-06 energy=-1400.2530488210691 units=gap_units Integrated_spin_density=6.55109e-05 opt_dir=/home/tks32/dft_pbe/apr_8_opt_fragments_subset/singlepoint_1_CO2 time=110.0 free_energy=-1400.2530488210691 pbc="T T T"
C       -0.04326534      -0.26409671       0.13648870      -0.61071428      -1.07952740      -0.44523508      -1.72593123      -0.82887781      -1.17132037
O       -1.19291179      -0.35556609      -0.16865373      -1.42323369       3.06627826       0.54149968       1.37647425       0.21993629       0.85997016
O        1.19458056      -0.29546045       0.08025132      -0.21515824      -2.86260137      -1.07929493       1.09838603       0.42987278       0.06342263
C        4.12146771       1.07378448       0.08795795       2.40682566       0.78314448      -0.05283930      -0.88932441      -2.21317500      -0.28223028
C        4.12565792      -0.17171018      -0.10341264       0.65870190      -0.68421157       0.44553822      -0.56495397       1.78213751       0.96238431
H        3.16837095       1.41993219      -0.34288200       0.09531973       0.07646244       0.10275833      -0.05091431       1.11045805      -0.09236295
H        4.75302584       1.76351180       0.65957976      -0.02791127       0.40869695      -0.33794437       0.02946540      -0.25832613      -0.04480061
H        1.57336856       0.39818301       0.74747387       0.15595102       0.06778897       0.36307006       0.30734662       0.73129692       0.36795234
H        3.56120837      -0.93489569      -0.58815255      -1.03978084       0.22396924       0.46244739       0.41945162      -0.97332261      -0.66301524
9
Lattice="13.0 0.0 0.0 0.0 9.0 0.0 0.0 0.0 9.0" Properties=species:S:1:pos:R:3:momenta:R:3:forces:R:3 EPS_SCF=1e-06 energy=-1400.2814279589081 units=gap_units Integrated_spin_density=6.55109e-05 opt_dir=/home/tks32/dft_pbe/apr_8_opt_fragments_subset/singlepoint_1_CO2 time=110.0 free_energy=-1400.2814279589081 pbc="T T T"
C       -0.04075222      -0.26810255       0.13213466      -0.61071428      -1.07952740      -0.44523508      -1.88658719      -0.75092948      -1.11087973
O       -1.19331919      -0.35491889      -0.16629764      -1.42323369       3.06627826       0.54149968       1.50240937       0.19768520       0.85667046
O        1.19575692      -0.29265771       0.08137982      -0.21515824      -2.86260137      -1.07929493       1.18307104       0.38718844       0.01607149
C        4.11860351       1.07270477       0.08921230       2.40682566       0.78314448      -0.05283930      -0.93793325      -2.26729928      -0.33072255
C        4.12171408      -0.17370196      -0.10152174       0.65870190      -0.68421157       0.44553822      -0.54232696       1.88880200       0.99156933
H        3.16764127       1.42538790      -0.34357625       0.09531973       0.07646244       0.10275833      -0.00541364       1.07589305      -0.07682273
H        4.75235258       1.76135610       0.65846790      -0.02791127       0.40869695      -0.33794437       0.03556563      -0.24604518      -0.02089057
H        1.57475463       0.40147314       0.74904428       0.15595102       0.06778897       0.36307006       0.26355160       0.71144991       0.35375808
H        3.56475118      -0.93785843      -0.59019265      -1.03978084       0.22396924       0.46244739       0.38766340      -0.99674466      -0.67875377
9
Lattice="13.0 0.0 0.0 0.0 9.0 0.0 0.0 0.0 9.0" Properties=species:S:1:pos:R:3:momenta:R:3:forces:R:3 EPS_SCF=1e-06 energy=-1400.3323775764204 units=gap_units Integrated_spin_density=6.55109e-05 opt_dir=/home/tks32/dft_pbe/apr_8_opt_fragments_subset/singlepoint_1_CO2 time=110.0 free_energy=-1400.3323775764204 pbc="T T T"
C       -0.04023797      -0.27285397       0.12666195      -0.61071428      -1.07952740      -0.44523508      -1.49801313      -0.63541365      -0.95942554
O       -1.19215069      -0.35407134      -0.16306887      -1.42323369       3.06627826       0.54149968       1.32118618       0.14678857       0.76799754
O        1.19815924      -0.28947793       0.08251384      -0.21515824      -2.86260137      -1.07929493       1.04703702       0.36186665      -0.01219502
C        4.11478669       1.06926380       0.09010811       2.40682566       0.78314448      -0.05283930      -0.93672702      -2.00550436      -0.29018306
C        4.11724230      -0.17369775      -0.09861237       0.65870190      -0.68421157       0.44553822      -0.58351816       1.64824052       0.91361731
H        3.16691322       1.43191466      -0.34434392       0.09531973       0.07646244       0.10275833       0.03886921       1.03541597      -0.06734477
H        4.75172327       1.75896454       0.65734531      -0.02791127       0.40869695      -0.33794437      -0.00250410      -0.27948154      -0.03267627
H        1.57640256       0.40547469       0.75096909       0.15595102       0.06778897       0.36307006       0.18843662       0.67007779       0.32023739
H        3.56866415      -0.94183434      -0.59292246      -1.03978084       0.22396924       0.46244739       0.42523338      -0.94198996      -0.64002758
9
Lattice="13.0 0.0 0.0 0.0 9.0 0.0 0.0 0.0 9.0" Properties=species:S:1:pos:R:3:momenta:R:3:forces:R:3 EPS_SCF=1e-06 energy=-1400.3986810805773 units=gap_units Integrated_spin_density=6.55109e-05 opt_dir=/home/tks32/dft_pbe/apr_8_opt_fragments_subset/singlepoint_1_CO2 time=110.0 free_energy=-1400.3986810805773 pbc="T T T"
C       -0.04168725      -0.27839402       0.11998332      -0.61071428      -1.07952740      -0.44523508      -0.53169189      -0.47943525      -0.71211251
O       -1.18926489      -0.35303938      -0.15886453      -1.42323369       3.06627826       0.54149968       0.80523374       0.06956394       0.59335848
O        1.20190939      -0.28585323       0.08362183      -0.21515824      -2.86260137      -1.07929493       0.69100998       0.35101538      -0.02479121
C        4.10977889       1.06323088       0.09061647       2.40682566       0.78314448      -0.05283930      -0.88146297      -1.30905807      -0.14182219
C        4.11204726      -0.17153819      -0.09453417       0.65870190      -0.68421157       0.44553822      -0.69061385       0.93537096       0.70325651
H        3.16624248       1.43973734      -0.34519282       0.09531973       0.07646244       0.10275833       0.07964318       0.98793766      -0.06494343
H        4.75109628       1.75622879       0.65618998      -0.02791127       0.40869695      -0.33794437      -0.08782985      -0.36111300      -0.08077971
H        1.57828225       0.41031688       0.75329555       0.15595102       0.06778897       0.36307006       0.08199491       0.60578979       0.26669259
H        3.57309836      -0.94700669      -0.59646494      -1.03978084       0.22396924       0.46244739       0.53371674      -0.80007142      -0.53885852
9
Lattice="13.0 0.0 0.0 0.0 9.0 0.0 0.0 0.0 9.0" Properties=species:S:1:pos:R:3:momenta:R:3:forces:R:3 EPS_SCF=1e-06 energy=-1400.4581313541703 units=gap_units Integrated_spin_density=6.55109e-05 opt_dir=/home/tks32/dft_pbe/apr_8_opt_fragments_subset/singlepoint_1_CO2 time=110.0 free_energy=-1400.4581313541703 pbc="T T T"
C       -0.04408326      -0.28475469       0.11207368      -0.61071428      -1.07952740      -0.44523508       0.83785886      -0.28808827      -0.38945600
O       -1.18495066      -0.35189013      -0.15362385      -1.42323369       3.06627826       0.54149968       0.03070991      -0.02358567       0.35925675
O        1.20687539      -0.28162434       0.08467649      -0.21515824      -2.86260137      -1.07929493       0.21004074       0.34560365      -0.03378184
C        4.10322188       1.05488627       0.09086531       2.40682566       0.78314448      -0.05283930      -0.78192651      -0.05392261       0.11955454
C        4.10564837      -0.16771005      -0.08922061       0.65870190      -0.68421157       0.44553822      -0.84354304      -0.37071261       0.35217172
H        3.16572049       1.44927909      -0.34615212       0.09531973       0.07646244       0.10275833       0.11333060       0.93214310      -0.06947332
H        4.75031593       1.75286371       0.65489812      -0.02791127       0.40869695      -0.33794437      -0.21106913      -0.48011605      -0.15402808
H        1.58029500       0.41621282       0.75608439       0.15595102       0.06778897       0.36307006      -0.04735321       0.52210317       0.19747853
H        3.57845964      -0.95358031      -0.60095072      -1.03978084       0.22396924       0.46244739       0.69195178      -0.58342471      -0.38172230
9
Lattice="13.0 0.0 0.0 0.0 9.0 0.0 0.0 0.0 9.0" Properties=species:S:1:pos:R:3:momenta:R:3:forces:R:3 EPS_SCF=1e-06 energy=-1400.498189984437 units=gap_units Integrated_spin_density=6.55109e-05 opt_dir=/home/tks32/dft_pbe/apr_8_opt_fragments_subset/singlepoint_1_CO2 time=110.0 free_energy=-1400.498189984437 pbc="T T T"
C       -0.04435706      -0.29179670       0.10323835      -0.61071428      -1.07952740      -0.44523508       1.96974504      -0.09028717      -0.08498540
O       -1.18058829      -0.35080791      -0.14751541      -1.42323369       3.06627826       0.54149968      -0.62083797      -0.10552957       0.16126961
O        1.21233592      -0.27655520       0.08563913      -0.21515824      -2.86260137      -1.07929493      -0.15417229       0.32882967      -0.06071960
C        4.09474353       1.04646230       0.09141299       2.40682566       0.78314448      -0.05283930      -0.67882977       1.36331382       0.39033883
C        4.09717218      -0.16483951      -0.08305759       0.65870190      -0.68421157       0.44553822      -0.96981478      -1.83801609      -0.01895056
H        3.16548688       1.46109968      -0.34727959       0.09531973       0.07646244       0.10275833       0.13406626       0.86877144      -0.07779983
H        4.74901028       1.74831445       0.65322778      -0.02791127       0.40869695      -0.33794437      -0.32999219      -0.58912832      -0.21286519
H        1.58217518       0.42338146       0.75935084       0.15595102       0.06778897       0.36307006      -0.17492951       0.43305377       0.12644542
H        3.58552415      -0.96157619      -0.60636581      -1.03978084       0.22396924       0.46244739       0.82476520      -0.37100755      -0.22273327
9
Lattice="13.0 0.0 0.0 0.0 9.0 0.0 0.0 0.0 9.0" Properties=species:S:1:pos:R:3:momenta:R:3:forces:R:3 EPS_SCF=1e-06 energy=-1400.551487565224 units=gap_units Integrated_spin_density=6.55109e-05 opt_dir=/home/tks32/dft_pbe/apr_8_opt_fragments_subset/singlepoint_1_CO2 time=110.0 free_energy=-1400.551487565224 pbc="T T T"
C       -0.03976555      -0.29902175       0.09424322      -0.61071428      -1.07952740      -0.44523508       2.19413631       0.07746928       0.09745647
O       -1.17778363      -0.34999239      -0.14104336      -1.42323369       3.06627826       0.54149968      -0.70270526      -0.15435031       0.09401100
O        1.21738482      -0.27070283       0.08644638      -0.21515824      -2.86260137      -1.07929493      -0.20683483       0.29099399      -0.11651394
C        4.08463702       1.04145240       0.09292141       2.40682566       0.78314448      -0.05283930      -0.62070072       1.88465274       0.47068985
C        4.08634933      -0.16652374      -0.07697628       0.65870190      -0.68421157       0.44553822      -0.98836796      -2.35532509      -0.17374593
H        3.16558564       1.47499849      -0.34859278       0.09531973       0.07646244       0.10275833       0.13977007       0.80242533      -0.08424828
H        4.74689719       1.74233626       0.65104129      -0.02791127       0.40869695      -0.33794437      -0.39082895      -0.62872561      -0.21358509
H        1.58361275       0.43157879       0.76291101       0.15595102       0.06778897       0.36307006      -0.27518759       0.35591815       0.06831856
H        3.59458518      -0.97044287      -0.61230021      -1.03978084       0.22396924       0.46244739       0.85071892      -0.27305848      -0.14238264
9
Lattice="13.0 0.0 0.0 0.0 9.0 0.0 0.0 0.0 9.0" Properties=species:S:1:pos:R:3:momenta:R:3:forces:R:3 EPS_SCF=1e-06 energy=-1400.6401021989639 units=gap_units Integrated_spin_density=6.55109e-05 opt_dir=/home/tks32/dft_pbe/apr_8_opt_fragments_subset/singlepoint_1_CO2 time=110.0 free_energy=-1400.6401021989639 pbc="T T T"
C       -0.02914642      -0.30599993       0.08555822      -0.61071428      -1.07952740      -0.44523508       1.22877704       0.19893934       0.13331284
O       -1.17692911      -0.34960615      -0.13434197      -1.42323369       3.06627826       0.54149968      -0.04193534      -0.17251824       0.16992859