9
Lattice="13.0 0.0 0.0 0.0 9.0 0.0 0.0 0.0 9.0" Properties=species:S:1:pos:R:3:momenta:R:3:forces:R:3 EPS_SCF=1e-06 energy=-1397.8212673338219 units=gap_units Integrated_spin_density=6.55109e-05 opt_dir=/home/tks32/dft_pbe/apr_8_opt_fragments_subset/singlepoint_1_CO2 time=20.0 free_energy=-1397.8212673338219 pbc="T T T"
C        0.48094770       0.00850400      -0.01125575       1.26734939      -0.79603220      -0.02023943      -2.85256506      -0.92892323      -0.17151907
O        0.46699827      -1.16795513      -0.33996109       3.13083309       1.08979548       0.10967757      -3.10486927       3.21741400       1.34400023
O        0.70339687       1.17862569       0.35244889       3.31985021      -0.70705770      -0.06075515      -1.83363171      -2.51306828      -0.81609801
C        3.64467052       0.34720434       0.22411102      -3.10367432       0.80846697       0.24597333      -1.11850458       1.82164419       0.50782598
C        2.60718822      -0.42100394      -0.24150865      -3.34852949       0.30095228      -0.36421173       3.84239108       0.33244627      -0.93201312
H        3.57378668       1.39188395       0.67461764      -0.65284155      -0.17558439      -0.33752090      -0.27471089      -0.82201560      -0.70189694
H        4.61273981       0.03480165       0.43743868      -0.51833688      -0.42689117       0.02305422       2.52315390      -1.44897623       0.11926196
H        1.84546918       0.32951108       0.12620116       0.23997464      -0.01191258       0.05718169       1.89529945      -1.05595721      -0.55033063
H        2.49093104      -1.14751893      -1.09503975      -0.33462509      -0.08173670       0.34684041       0.92343708       1.39743609       1.20076961
9
Lattice="13.0 0.0 0.0 0.0 9.0 0.0 0.0 0.0 9.0" Properties=species:S:1:pos:R:3:momenta:R:3:forces:R:3 EPS_SCF=1e-06 energy=-1398.431130335657 units=gap_units Integrated_spin_density=6.55109e-05 opt_dir=/home/tks32/dft_pbe/apr_8_opt_fragments_subset/singlepoint_1_CO2 time=20.0 free_energy=-1398.431130335657 pbc="T T T"
C        0.45242205      -0.00078523      -0.01297094       1.26734939      -0.79603220      -0.02023943      -2.31579646       1.18397623       0.43158514
O        0.43594958      -1.13578099      -0.32652109       3.13083309       1.08979548       0.10967757      -2.87918475      -0.10333136       0.31376348
O        0.68506055       1.15349501       0.34428791       3.31985021      -0.70705770      -0.06075515      -1.24302647      -1.61013543      -0.57198102
C        3.63348547       0.36542078       0.22918928      -3.10367432       0.80846697       0.24597333       1.52518299       0.80336534       0.70005246
C        2.64561213      -0.41767948      -0.25082878      -3.34852949       0.30095228      -0.36421173       1.88355020       0.71709740      -0.52169448
H        3.57103957       1.38366379       0.66759867      -0.65284155      -0.17558439      -0.33752090      -0.37724868      -0.02377209      -0.36327077
H        4.63797135       0.02031189       0.43863130      -0.51833688      -0.42689117       0.02305422       0.97973009      -0.81090297      -0.14758264
H        1.86442217       0.31895151       0.12069785       0.23997464      -0.01191258       0.05718169       1.61574962      -1.15652786      -0.61990541
H        2.50016541      -1.13354457      -1.08303205      -0.33462509      -0.08173670       0.34684041       0.81104347       1.00023074       0.77903324
9
Lattice="13.0 0.0 0.0 0.0 9.0 0.0 0.0 0.0 9.0" Properties=species:S:1:pos:R:3:momenta:R:3:forces:R:3 EPS_SCF=1e-06 energy=-1398.9355050335378 units=gap_units Integrated_spin_density=6.55109e-05 opt_dir=/home/tks32/dft_pbe/apr_8_opt_fragments_subset/singlepoint_1_CO2 time=20.0 free_energy=-1398.9355050335378 pbc="T T T"
C        0.40012911       0.00446415      -0.00955358       1.26734939      -0.79603220      -0.02023943      -1.83743174       0.20406581       0.08967456
O        0.37490981      -1.10801205      -0.31081840       3.13083309       1.08979548       0.10967757      -2.52570089      -2.39726582      -0.47329360
O        0.65426940       1.11236904       0.33036816       3.31985021      -0.70705770      -0.06075515      -0.28053166       1.40017468       0.29685359
C        3.64095076       0.39105019       0.24180675      -3.10367432       0.80846697       0.24597333       3.30535352      -0.93714417       0.31738520
C        2.70184488      -0.40644450      -0.26521373      -3.34852949       0.30095228      -0.36421173      -0.12644902       1.54602037       0.34749281
H        3.56423074       1.37599240       0.65710584      -0.65284155      -0.17558439      -0.33752090      -0.39352889       1.08748253       0.15357632
H        4.67194164      -0.00205015       0.43800821      -0.51833688      -0.42689117       0.02305422      -0.08559183      -0.07812410      -0.21915394
H        1.90005275       0.29615372       0.10861913       0.23997464      -0.01191258       0.05718169       1.32308173      -1.11157765      -0.56675441
H        2.51779921      -1.10947009      -1.06327022      -0.33462509      -0.08173670       0.34684041       0.62079877       0.28636834       0.05421947
9
Lattice="13.0 0.0 0.0 0.0 9.0 0.0 0.0 0.0 9.0" Properties=species:S:1:pos:R:3:momenta:R:3:forces:R:3 EPS_SCF=1e-06 energy=-1399.4509706341091 units=gap_units Integrated_spin_density=6.55109e-05 opt_dir=/home/tks32/dft_pbe/apr_8_opt_fragments_subset/singlepoint_1_CO2 time=20.0 free_energy=-1399.4509706341091 pbc="T T T"
C        0.33047062       0.01169799      -0.00537524       1.26734939      -0.79603220      -0.02023943      -1.23257646      -2.16516024      -0.60664504
O        0.28891554      -1.11249911      -0.30250607       3.13083309       1.08979548       0.10967757      -2.24228621      -1.17332260      -0.24318443
O        0.62310767       1.09257358       0.32149079       3.31985021      -0.70705770      -0.06075515       0.08042280       2.46841394       0.58306209
C        3.68831536       0.40259262       0.25706535      -3.10367432       0.80846697       0.24597333       3.57796356      -1.06364045       0.13633952
C        2.75089941      -0.37732165      -0.27388707      -3.34852949       0.30095228      -0.36421173      -1.18078182       1.29555843       0.42526966
H        3.55326357       1.38246088       0.64955081      -0.65284155      -0.17558439      -0.33752090      -0.09667465       1.16594410       0.28414530
H        4.70146237      -0.02313667       0.43475250      -0.51833688      -0.42689117       0.02305422       0.10541832       0.20728410      -0.05588521
H        1.94839017       0.26196667       0.09077891       0.23997464      -0.01191258       0.05718169       0.30846571      -0.48560552      -0.12081608
H        2.54130357      -1.08428159      -1.04481783      -0.33462509      -0.08173670       0.34684041       0.68004876      -0.24947176      -0.40228581
9
Lattice="13.0 0.0 0.0 0.0 9.0 0.0 0.0 0.0 9.0" Properties=species:S:1:pos:R:3:momenta:R:3:forces:R:3 EPS_SCF=1e-06 energy=-1399.9807315013456 units=gap_units Integrated_spin_density=6.55109e-05 opt_dir=/home/tks32/dft_pbe/apr_8_opt_fragments_subset/singlepoint_1_CO2 time=20.0 free_energy=-1399.9807315013456 pbc="T T T"
C        0.25223728      -0.00909057      -0.00926349       1.26734939      -0.79603220      -0.02023943       0.37460948       1.89190155       0.55642056
O        0.18324927      -1.13133107      -0.29809111       3.13083309       1.08979548       0.10967757      -1.92521697      -0.79752499      -0.20587001
O        0.59607611       1.10588019       0.32085258       3.31985021      -0.70705770      -0.06075515      -1.18657618      -1.77219806      -0.66494747
C        3.77605555       0.39957010       0.27251710      -3.10367432       0.80846697       0.24597333       1.27566669       0.62649816       0.07418205
C        2.78016083      -0.33477628      -0.27633115      -3.34852949       0.30095228      -0.36421173      -0.12436728      -0.07300514      -0.34648384
H        3.54217422       1.40298309       0.64633387      -0.65284155      -0.17558439      -0.33752090       0.62708124       0.02061923      -0.02149224
H        4.72936018      -0.03950104       0.43111774      -0.51833688      -0.42689117       0.02305422       1.82355195      -0.23770758       0.27881842
H        1.99578308       0.22507566       0.07319943       0.23997464      -0.01191258       0.05718169      -1.81039892       0.79257003       0.79770773
H        2.57103176      -1.06475737      -1.03328282      -0.33462509      -0.08173670       0.34684041       0.94564998      -0.45115322      -0.46833520
9
Lattice="13.0 0.0 0.0 0.0 9.0 0.0 0.0 0.0 9.0" Properties=species:S:1:pos:R:3:momenta:R:3:forces:R:3 EPS_SCF=1e-06 energy=-1400.2186526895673 units=gap_units Integrated_spin_density=6.55109e-05 opt_dir=/home/tks32/dft_pbe/apr_8_opt_fragments_subset/singlepoint_1_CO2 time=20.0 free_energy=-1400.2186526895673 pbc="T T T"
C        0.18699789      -0.00168693      -0.00508282       1.26734939      -0.79603220      -0.02023943      -0.38642263      -1.59683080      -0.38249242
O        0.06157645      -1.15928783      -0.29695921       3.13083309       1.08979548       0.10967757      -0.80021007       2.47545817       0.54813475
O        0.55536976       1.09339503       0.31110012       3.31985021      -0.70705770      -0.06075515      -0.97309610      -1.27005448      -0.49258351
C        3.87262936       0.40549719       0.28744758      -3.10367432       0.80846697       0.24597333      -3.45036656       0.57467930      -1.13589856
C        2.80477950      -0.29749313      -0.28331323      -3.34852949       0.30095228      -0.36421173       2.66282264       0.32436057       0.16982624
H        3.54084921       1.42173769       0.64314198      -0.65284155      -0.17558439      -0.33752090       1.30169163      -0.74515766      -0.16102801
H        4.77963814      -0.05750998       0.43169490      -0.51833688      -0.42689117       0.02305422       3.14577959      -0.71372862       0.49486656
H        2.01344832       0.20281336       0.06838841       0.23997464      -0.01191258       0.05718169      -2.44569843       1.44829133       1.37280271
H        2.61083965      -1.05341269      -1.02936560      -0.33462509      -0.08173670       0.34684041       0.94549994      -0.49701781      -0.41362775
9
Lattice="13.0 0.0 0.0 0.0 9.0 0.0 0.0 0.0 9.0" Properties=species:S:1:pos:R:3:momenta:R:3:forces:R:3 EPS_SCF=1e-06 energy=-1400.3405678926213 units=gap_units Integrated_spin_density=6.55109e-05 opt_dir=/home/tks32/dft_pbe/apr_8_opt_fragments_subset/singlepoint_1_CO2 time=20.0 free_energy=-1400.3405678926213 pbc="T T T"
C        0.18603183      -0.00567901      -0.00603905       1.26734939      -0.79603220      -0.02023943      -0.32596754      -0.84284569      -0.19116333
O        0.05957593      -1.15309918      -0.29558887       3.13083309       1.08979548       0.10967757      -0.85871024       1.60399797       0.31796323
O        0.55293702       1.09021989       0.30986866       3.31985021      -0.70705770      -0.06075515      -0.90676818      -1.16507383      -0.46904192
C        3.86400345       0.40693389       0.28460783      -3.10367432       0.80846697       0.24597333      -1.83826100       0.58949988      -0.63733542
C        2.81143656      -0.29668222      -0.28288866      -3.34852949       0.30095228      -0.36421173       1.35655769       0.04680615      -0.14197468
H        3.54410344       1.41987479       0.64273941      -0.65284155      -0.17558439      -0.33752090       1.19621900      -0.61856928      -0.13097003
H        4.78750259      -0.05929430       0.43293207      -0.51833688      -0.42689117       0.02305422       2.50966668      -0.37571742       0.39241493
H        2.00733407       0.20643409       0.07182041       0.23997464      -0.01191258       0.05718169      -2.07453761       1.19057894       1.18924400
H        2.61320340      -1.05465523      -1.03039967      -0.33462509      -0.08173670       0.34684041       0.94180122      -0.42867671      -0.32913679
9
Lattice="13.0 0.0 0.0 0.0 9.0 0.0 0.0 0.0 9.0" Properties=species:S:1:pos:R:3:momenta:R:3:forces:R:3 EPS_SCF=1e-06 energy=-1400.4614623036161 units=gap_units Integrated_spin_density=6.55109e-05 opt_dir=/home/tks32/dft_pbe/apr_8_opt_fragments_subset/singlepoint_1_CO2 time=20.0 free_energy=-1400.4614623036161 pbc="T T T"
C        0.18423333      -0.01167411      -0.00744450       1.26734939      -0.79603220      -0.02023943      -0.27167345       0.31358901       0.09771525
O        0.05532801      -1.14295778      -0.29344932       3.13083309       1.08979548       0.10967757      -0.96168021       0.11732921      -0.07547507
O        0.54816314       1.08404164       0.30742351       3.31985021      -0.70705770      -0.06075515      -0.74728682      -0.85665593      -0.39136565
C        3.85100081       0.40990708       0.28023557      -3.10367432       0.80846697       0.24597333       0.31445477       0.37325511      -0.05576222
C        2.82129429      -0.29581901      -0.28291120      -3.34852949       0.30095228      -0.36421173      -0.35491595      -0.13766439      -0.41262791
H        3.55044164       1.41643518       0.64200382      -0.65284155      -0.17558439      -0.33752090       1.01574155      -0.36935909      -0.06347493
H        4.80173351      -0.06197104       0.43516396      -0.51833688      -0.42689117       0.02305422       1.52774382       0.12886121       0.22941650
H        1.99591852       0.21308606       0.07829874       0.23997464      -0.01191258       0.05718169      -1.43454397       0.76608858       0.88215202
H        2.61801505      -1.05699531      -1.03226842      -0.33462509      -0.08173670       0.34684041       0.91216027      -0.33544372      -0.21057799
9
Lattice="13.0 0.0 0.0 0.0 9.0 0.0 0.0 0.0 9.0" Properties=species:S:1:pos:R:3:momenta:R:3:forces:R:3 EPS_SCF=1e-06 energy=-1400.5140081245497 units=gap_units Integrated_spin_density=6.55109e-05 opt_dir=/home/tks32/dft_pbe/apr_8_opt_fragments_subset/singlepoint_1_CO2 time=20.0 free_energy=-1400.5140081245497 pbc="T T T"
C        0.18167215      -0.01598176      -0.00837040       1.26734939      -0.79603220      -0.02023943      -0.36555375       1.01698716       0.25981557
O        0.04816850      -1.13342346      -0.29178558       3.13083309       1.08979548       0.10967757      -1.05766554      -1.28184860      -0.45020082
O        0.54127406       1.07550920       0.30386511       3.31985021      -0.70705770      -0.06075515      -0.46659671      -0.18775176      -0.21152925
C        3.84038939       0.41387789       0.27610707      -3.10367432       0.80846697       0.24597333       1.94999070      -0.13708839       0.26047879
C        2.82893494      -0.29551972      -0.28436302      -3.34852949       0.30095228      -0.36421173      -1.64171097       0.01485675      -0.38530016
H        3.55966996       1.41205810       0.64112157      -0.65284155      -0.17558439      -0.33752090       0.81576295      -0.03812866       0.03767914
H        4.81984156      -0.06393304       0.43796858      -0.51833688      -0.42689117       0.02305422       0.61177451       0.57392795       0.06854429
H        1.98066763       0.22173065       0.08718970       0.23997464      -0.01191258       0.05718169      -0.68253115       0.30840351       0.54104450
H        2.62551010      -1.06026515      -1.03468086      -0.33462509      -0.08173670       0.34684041       0.83652994      -0.26935795      -0.12053206
9
Lattice="13.0 0.0 0.0 0.0 9.0 0.0 0.0 0.0 9.0" Properties=species:S:1:pos:R:3:momenta:R:3:forces:R:3 EPS_SCF=1e-06 energy=-1400.544009495599 units=gap_units Integrated_spin_density=6.55109e-05 opt_dir=/home/tks32/dft_pbe/apr_8_opt_fragments_subset/singlepoint_1_CO2 time=20.0 free_energy=-1400.544009495599 pbc="T T T"
C        0.17808909      -0.01630319      -0.00829538       1.26734939      -0.79603220      -0.02023943      -0.67073774       0.59316251       0.12428147
O        0.03802728      -1.12932400      -0.29186214       3.13083309       1.08979548       0.10967757      -1.07220901      -1.79499663      -0.59754573
O        0.53344264       1.06717361       0.29992302       3.31985021      -0.70705770      -0.06075515      -0.13978875       0.72657236       0.04125725
C        3.83765640       0.41697235       0.27330207      -3.10367432       0.80846697       0.24597333       2.69689675      -0.68418639       0.29543273
C        2.83007199      -0.29519841      -0.28701670      -3.34852949       0.30095228      -0.36421173      -2.23297511       0.37300896      -0.13196338
H        3.57082740       1.40798542       0.64045927      -0.65284155      -0.17558439      -0.33752090       0.66734891       0.26075932       0.13605609
H        4.83827762      -0.06369236       0.44073237      -0.51833688      -0.42689117       0.02305422       0.03284925       0.82114301      -0.04783535
H        1.96455565       0.23058897       0.09708308       0.23997464      -0.01191258       0.05718169      -0.01233023      -0.05131590       0.25979406
H        2.63518021      -1.06414969      -1.03727344      -0.33462509      -0.08173670       0.34684041       0.73094593      -0.24414724      -0.07947714
9
Lattice="13.0 0.0 0.0 0.0 9.0 0.0 0.0 0.0 9.0" Properties=species:S:1:pos:R:3:momenta:R:3:forces:R:3 EPS_SCF=1e-06 energy=-1400.6052917320953 units=gap_units Integrated_spin_density=6.55109e-05 opt_dir=/home/tks32/dft_pbe/apr_8_opt_fragments_subset/singlepoint_1_CO2 time=20.0 free_energy=-1400.6052917320953 pbc="T T T"
C        0.17264849      -0.01463291      -0.00781728       1.26734939      -0.79603220      -0.02023943      -1.03875605      -0.47423932      -0.17588620
O        0.02535803      -1.13156444      -0.29390510       3.13083309       1.08979548       0.10967757      -0.98899938      -1.42079578      -0.51331884
O        0.52593256       1.06207189       0.29651144       3.31985021      -0.70705770      -0.06075515       0.07554722       1.40557335       0.23453305
C        3.84410618       0.41749708       0.27175356      -3.10367432       0.80846697       0.24597333       2.56774731      -1.10588092       0.12546149
C        2.82371848      -0.29367697      -0.28984096      -3.34852949       0.30095228      -0.36421173      -2.11827353       0.79577034       0.23464515
H        3.58307376       1.40518146       0.64031267      -0.65284155      -0.17558439      -0.33752090       0.61140040       0.42471977       0.19216686
H        4.85497858      -0.06076301       0.44306175      -0.51833688      -0.42689117       0.02305422      -0.19580912       0.86655739      -0.11823631
H        1.95001415       0.23839194       0.10684539       0.23997464      -0.01191258       0.05718169       0.46559531      -0.26321835       0.07587429
H        2.64629807      -1.06845235      -1.03986932      -0.33462509      -0.08173670       0.34684041       0.62154786      -0.22848647      -0.05523949
9
Lattice="13.0 0.0 0.0 0.0 9.0 0.0 0.0 0.0 9.0" Properties=species:S:1:pos:R:3:momenta:R:3:forces:R:3 EPS_SCF=1e-06 energy=-1400.7039148560111 units=gap_units Integrated_spin_density=6.55109e-05 opt_dir=/home/tks32/dft_pbe/apr_8_opt_fragments_subset/singlepoint_1_CO2 time=20.0 free_energy=-1400.7039148560111 pbc="T T T"
C        0.16433439      -0.01468992      -0.00796567       1.26734939      -0.79603220      -0.02023943      -1.22280159      -1.12788941      -0.36088303
O        0.01070185      -1.13825532      -0.29743261       3.13083309       1.08979548       0.10967757      -0.85046720      -0.68925512      -0.33256770
O        0.51942204       1.06210474       0.29421264       3.31985021      -0.70705770      -0.06075515       0.03252417       1.32208004       0.22464032
C        3.85835899       0.41433095       0.27077268      -3.10367432       0.80846697       0.24597333       1.54295281      -1.39642546      -0.23652823
C        2.81103110      -0.28968955      -0.29161080      -3.34852949       0.30095228      -0.36421173      -1.25155080       1.23597287       0.66595296
H        3.59610701       1.40405525       0.64081298      -0.65284155      -0.17558439      -0.33752090       0.65862630       0.40121284       0.18409441
H        4.86936524      -0.05527558       0.44476920      -0.51833688      -0.42689117       0.02305422      -0.13500080       0.74175736      -0.15227240
H        1.93845862       0.24454861       0.11588110       0.23997464      -0.01191258       0.05718169       0.70176978      -0.31446816       0.00231905
H        2.65834906      -1.07307647      -1.04238736      -0.33462509      -0.08173670       0.34684041       0.52394732      -0.17298496       0.00524462
9
Lattice="13.0 0.0 0.0 0.0 9.0 0.0 0.0 0.0 9.0" Properties=species:S:1:pos:R:3:momenta:R:3:forces:R:3 EPS_SCF=1e-06 energy=-1400.803415263051 units=gap_units Integrated_spin_density=6.55109e-05 opt_dir=/home/tks32/dft_pbe/apr_8_opt_fragments_subset/singlepoint_1_CO2 time=20.0 free_energy=-1400.803415263051 pbc="T T T"
C        0.15256591      -0.01869437      -0.00936408       1.26734939      -0.79603220      -0.02023943      -1.08545840      -0.77956741      -0.28034983
O       -0.00546951      -1.14669288      -0.30177298       3.13083309       1.08979548       0.10967757      -0.68376793      -0.07070095      -0.17647200
O        0.51367656       1.06676806       0.29293106       3.31985021      -0.70705770      -0.06075515      -0.27013139       0.36886620      -0.01464958
C        3.87659441       0.40658709       0.26906088      -3.10367432       0.80846697       0.24597333      -0.11151337      -1.44881605      -0.65881805
C        2.79522590      -0.28176891      -0.29086957      -3.34852949       0.30095228      -0.36421173       0.14676848       1.47995877       0.97513247
H        3.61014536       1.40444786       0.64190848      -0.65284155      -0.17558439      -0.33752090       0.76879916       0.17153989       0.10320703
H        4.88184006      -0.04773712       0.44577220      -0.51833688      -0.42689117       0.02305422       0.11551158       0.49674202      -0.16281877
H        1.93051827       0.24898743       0.12402136       0.23997464      -0.01191258       0.05718169       0.68408231      -0.20656371       0.04650080
H        2.67103133      -1.07784447      -1.04463521      -0.33462509      -0.08173670       0.34684041       0.43570956      -0.01145876       0.16826793
9
Lattice="13.0 0.0 0.0 0.0 9.0 0.0 0.0 0.0 9.0" Properties=species:S:1:pos:R:3:momenta:R:3:forces:R:3 EPS_SCF=1e-06 energy=-1400.8751834406771 units=gap_units Integrated_spin_density=6.55109e-05 opt_dir=/home/tks32/dft_pbe/apr_8_opt_fragments_subset/singlepoint_1_CO2 time=20.0 free_energy=-1400.8751834406771 pbc="T T T"
C        0.13592798      -0.02624049      -0.01203656       1.26734939      -0.79603220      -0.02023943      -0.69167645       0.29609000      -0.01692934
O       -0.02462073      -1.15537089      -0.30688075       3.13083309       1.08979548       0.10967757      -0.51949156       0.28268595      -0.08867851
O        0.50674742       1.07307950       0.29159499       3.31985021      -0.70705770      -0.06075515      -0.71903523      -1.03559738      -0.36786332
C        3.89413512       0.39226410       0.26433926      -3.10367432       0.80846697       0.24597333      -1.40805696      -0.81549655      -0.68591955
C        2.78025309      -0.26712781      -0.28565550      -3.34852949       0.30095228      -0.36421173       1.23276222       0.94272109       0.66696033
H        3.62757556       1.40562469       0.64346722      -0.65284155      -0.17558439      -0.33752090       0.92173677      -0.24154083      -0.04547621
H        4.89472085      -0.03799176       0.44601710      -0.51833688      -0.42689117       0.02305422       0.41872376       0.19020453      -0.17859205
H        1.92580034       0.25243281       0.13229387       0.23997464      -0.01191258       0.05718169       0.43099540       0.04976781       0.21141101
H        2.68558865      -1.08261744      -1.04608747      -0.33462509      -0.08173670       0.34684041       0.33404205       0.33116536       0.50508763
9
Lattice="13.0 0.0 0.0 0.0 9.0 0.0 0.0 0.0 9.0" Properties=species:S:1:pos:R:3:momenta:R:3:forces:R:3 EPS_SCF=1e-06 energy=-1400.9274996960883 units=gap_units Integrated_spin_density=6.55109e-05 opt_dir=/home/tks32/dft_pbe/apr_8_opt_fragments_subset/singlepoint_1_CO2 time=20.0 free_energy=-1400.9274996960883 pbc="T T T"
C        0.11567373      -0.03210801      -0.01477740       1.26734939      -0.79603220      -0.02023943      -0.40743921       0.81289414       0.08742521
O       -0.04642878      -1.16243319      -0.31242568       3.13083309       1.08979548       0.10967757      -0.38464378       0.53007925      -0.02881870
O        0.49596667       1.07369862       0.28826875       3.31985021      -0.70705770      -0.06075515      -1.00064180      -1.77410829      -0.54126071
C        3.90385651       0.37363031       0.25592660      -3.10367432       0.80846697       0.24597333      -1.13192172       0.44476706      -0.04526207
C        2.77212272      -0.24748634      -0.27685796      -3.34852949       0.30095228      -0.36421173       1.08624036      -0.38704180      -0.32766068
H        3.64986711       1.40547648       0.64476458      -0.65284155      -0.17558439      -0.33752090       1.02446659      -0.64503956      -0.19700655
H        4.90976587      -0.02729796       0.44528785      -0.51833688      -0.42689117       0.02305422       0.48319783      -0.03285381      -0.24567948
H        1.92347006       0.25611838       0.14164333       0.23997464      -0.01191258       0.05718169       0.12625756       0.31441309       0.40229472
H        2.70183440      -1.08554559      -1.04477792      -0.33462509      -0.08173670       0.34684041       0.20448418       0.73688993       0.89596826
9
Lattice="13.0 0.0 0.0 0.0 9.0 0.0 0.0 0.0 9.0" Properties=species:S:1:pos:R:3:momenta:R:3:forces:R:3 EPS_SCF=1e-06 energy=-1400.9929290282644 units=gap_units Integrated_spin_density=6.55109e-05 opt_dir=/home/tks32/dft_pbe/apr_8_opt_fragments_subset/singlepoint_1_CO2 time=20.0 free_energy=-1400.9929290282644 pbc="T T T"
C        0.09303666      -0.03286001      -0.01695160       1.26734939      -0.79603220      -0.02023943      -0.49550871       0.04775094      -0.14694860
O       -0.07046537      -1.16613442      -0.31810703       3.13083309       1.08979548       0.10967757      -0.30723465       0.73167088       0.02143227
O        0.47902952       1.06324851       0.28159287       3.31985021      -0.70705770      -0.06075515      -0.90106251      -1.18291921      -0.36683582
C        3.90644261       0.35791591       0.24729738      -3.10367432       0.80846697       0.24597333       0.14392560       1.40118871       0.69732036
C        2.77083031      -0.23041212      -0.27017263      -3.34852949       0.30095228      -0.36421173       0.26273359      -1.41058263      -1.11730723
H        3.67837373       1.40130658       0.64482316      -0.65284155      -0.17558439      -0.33752090       0.98774685      -0.77798485      -0.25356065
H        4.92770688      -0.01689258       0.44303209      -0.51833688      -0.42689117       0.02305422       0.21729881      -0.12335976      -0.36557658
H        1.92194539       0.26173603       0.15342872       0.23997464      -0.01191258       0.05718169       0.03876499       0.39302223       0.45999983
H        2.71922854      -1.08385518      -1.03789080      -0.33462509      -0.08173670       0.34684041       0.05333603       0.92121369       1.07147643
9
Lattice="13.0 0.0 0.0 0.0 9.0 0.0 0.0 0.0 9.0" Properties=species:S:1:pos:R:3:momenta:R:3:forces:R:3 EPS_SCF=1e-06 energy=-1401.0996913651957 units=gap_units Integrated_spin_density=6.55109e-05 opt_dir=/home/tks32/dft_pbe/apr_8_opt_fragments_subset/singlepoint_1_CO2 time=20.0 free_energy=-1401.0996913651957 pbc="T T T"
C        0.06697256      -0.03326200      -0.02017268       1.26734939      -0.79603220      -0.02023943      -0.75482318      -1.01170859      -0.44489700
O       -0.09655951      -1.16452531      -0.32359531       3.13083309       1.08979548       0.10967757      -0.33759139       0.35808062      -0.07868196
O        0.45569734       1.04432361       0.27231199       3.31985021      -0.70705770      -0.06075515      -0.57598038       0.30501716       0.03406538
C        3.91005100       0.35242919       0.24376354      -3.10367432       0.80846697       0.24597333       0.89304341       1.24799738       0.79255305
C        2.77144453      -0.22364259      -0.27160349      -3.34852949       0.30095228      -0.36421173      -0.06006165      -1.14060673      -0.82298540
H        3.71382368       1.39154476       0.64304968      -0.65284155      -0.17558439      -0.33752090       0.79585151      -0.47509095      -0.14486274
H        4.94709682      -0.00744839       0.43815067      -0.51833688      -0.42689117       0.02305422      -0.12782171      -0.15372568      -0.47072614
H        1.92071102       0.27015497       0.16845770       0.23997464      -0.01191258       0.05718169       0.27131619       0.20998412       0.29777176
H        2.73689086      -1.07552152      -1.02330994      -0.33462509      -0.08173670       0.34684041      -0.10393281       0.66005268       0.83776304
9
Lattice="13.0 0.0 0.0 0.0 9.0 0.0 0.0 0.0 9.0" Properties=species:S:1:pos:R:3:momenta:R:3:forces:R:3 EPS_SCF=1e-06 energy=-1401.1987181889563 units=gap_units Integrated_spin_density=6.55109e-05 opt_dir=/home/tks32/dft_pbe/apr_8_opt_fragments_subset/singlepoint_1_CO2 time=20.0 free_energy=-1401.1987181889563 pbc="T T T"
C        0.03433044      -0.04267632      -0.02733967       1.26734939      -0.79603220      -0.02023943      -0.44980958      -0.07706167      -0.18081893
O       -0.12551385      -1.15973472      -0.32975357       3.13083309       1.08979548       0.10967757      -0.48030061      -1.07126722      -0.46627975