9
Lattice="13.0 0.0 0.0 0.0 9.0 0.0 0.0 0.0 9.0" Properties=species:S:1:pos:R:3:momenta:R:3:forces:R:3 EPS_SCF=1e-06 energy=-1399.9382703299266 units=gap_units Integrated_spin_density=6.55109e-05 opt_dir=/home/tks32/dft_pbe/apr_8_opt_fragments_subset/singlepoint_1_CO2 time=85.0 free_energy=-1399.9382703299266 pbc="T T T"
C        0.17212659      -0.19827426       0.02598908      -0.63077404       0.31919694       1.47591940      -2.88363326      -2.05304180      -0.25921110
O       -0.86698562      -0.74967558      -0.14804105      -3.23302443       2.06091676      -0.54916870       0.76556365       0.78392988      -0.21797980
O        1.30347437       0.25171389       0.19443116       0.05772530      -4.36732137      -1.08781327       0.92715441       0.01954096       0.57445173
C        3.68304562       0.83271980       0.21874148      -0.06977388       2.84056202      -1.01125090       1.10811808       2.79174972      -0.87907444
C        3.83223809      -0.23458214      -0.37331058       1.79542827      -1.13374408       1.29125800      -0.65677476       0.42312062       0.31362377
H        3.21328109       1.74169352      -0.30412893       0.49180885       0.05597825       0.34041175       0.46934399      -0.86745286       0.36245224
H        4.04076211       1.19489071       1.18237668       0.45835599       0.36618446      -0.31479491      -0.74537676      -0.35117301       0.28751381
H        1.02361799       1.19923317       0.56568850       0.94997099      -0.04862787       0.17240238       0.67642562       0.45959396       0.21281232
H        4.51909622      -0.99679980      -0.64812367       0.18028295      -0.09314511      -0.31696374       0.33917904      -1.20626748      -0.39458854
9
Lattice="13.0 0.0 0.0 0.0 9.0 0.0 0.0 0.0 9.0" Properties=species:S:1:pos:R:3:momenta:R:3:forces:R:3 EPS_SCF=1e-06 energy=-1400.0468048555697 units=gap_units Integrated_spin_density=6.55109e-05 opt_dir=/home/tks32/dft_pbe/apr_8_opt_fragments_subset/singlepoint_1_CO2 time=85.0 free_energy=-1400.0468048555697 pbc="T T T"
C        0.14329026      -0.21880468       0.02339697      -0.63077404       0.31919694       1.47591940       3.29551474       1.11608787       0.83635616
O       -0.85932998      -0.74183628      -0.15022085      -3.23302443       2.06091676      -0.54916870      -2.93909980      -1.18544610      -0.85479296
O        1.31274591       0.25190930       0.20017568       0.05772530      -4.36732137      -1.08781327      -1.75229723      -0.62355803       0.38827685
C        3.69412680       0.86063730       0.20995074      -0.06977388       2.84056202      -1.01125090       1.36724923       1.08063522      -1.04977866
C        3.82567034      -0.23035093      -0.37017434       1.79542827      -1.13374408       1.29125800      -0.23433523       0.82469785       0.55403846
H        3.21797453       1.73301899      -0.30050441       0.49180885       0.05597825       0.34041175       0.30975778      -0.16666523       0.01399067
H        4.03330834       1.19137898       1.18525182       0.45835599       0.36618446      -0.31479491      -0.66090361      -0.25564547       0.32447568
H        1.03038225       1.20382911       0.56781662       0.94997099      -0.04862787       0.17240238       0.68621737      -0.15214784      -0.02977168
H        4.52248801      -1.00886247      -0.65206956       0.18028295      -0.09314511      -0.31696374      -0.07210325      -0.63795827      -0.18279454
9
Lattice="13.0 0.0 0.0 0.0 9.0 0.0 0.0 0.0 9.0" Properties=species:S:1:pos:R:3:momenta:R:3:forces:R:3 EPS_SCF=1e-06 energy=-1400.1115236224266 units=gap_units Integrated_spin_density=6.55109e-05 opt_dir=/home/tks32/dft_pbe/apr_8_opt_fragments_subset/singlepoint_1_CO2 time=85.0 free_energy=-1400.1115236224266 pbc="T T T"
C        0.15152904      -0.21601446       0.02548786      -0.63077404       0.31919694       1.47591940       1.14237450       0.07957583       0.48452789
O       -0.86667773      -0.74479990      -0.15235783      -3.23302443       2.06091676      -0.54916870      -1.39185110      -0.39335049      -0.58782507
O        1.30836517       0.25035040       0.20114637       0.05772530      -4.36732137      -1.08781327      -1.00221977      -0.49189509       0.40842711
C        3.69754492       0.86333889       0.20732629      -0.06977388       2.84056202      -1.01125090       1.30768706       1.12489974      -0.91429895
C        3.82508450      -0.22828919      -0.36878925       1.79542827      -1.13374408       1.29125800      -0.15628358       0.62623077       0.45042116
H        3.21874892       1.73260233      -0.30046943       0.49180885       0.05597825       0.34041175       0.26902154      -0.12702877      -0.01706960
H        4.03165608       1.19073987       1.18606301       0.45835599       0.36618446      -0.31479491      -0.66886169      -0.25799683       0.29943524
H        1.03209779       1.20344874       0.56774219       0.94997099      -0.04862787       0.17240238       0.66107107      -0.01483167       0.02236740
H        4.52230775      -1.01045737      -0.65252654       0.18028295      -0.09314511      -0.31696374      -0.16093802      -0.54560349      -0.14598518
9
Lattice="13.0 0.0 0.0 0.0 9.0 0.0 0.0 0.0 9.0" Properties=species:S:1:pos:R:3:momenta:R:3:forces:R:3 EPS_SCF=1e-06 energy=-1400.1470314394458 units=gap_units Integrated_spin_density=6.55109e-05 opt_dir=/home/tks32/dft_pbe/apr_8_opt_fragments_subset/singlepoint_1_CO2 time=85.0 free_energy=-1400.1470314394458 pbc="T T T"
C        0.16229553      -0.21326980       0.02879120      -0.63077404       0.31919694       1.47591940      -1.76500553      -1.27565965       0.00948087
O       -0.87737422      -0.74862119      -0.15600572      -3.23302443       2.06091676      -0.54916870       0.53602547       0.57566870      -0.24603943
O        1.30148212       0.24750424       0.20321827       0.05772530      -4.36732137      -1.08781327       0.20451603      -0.25593393       0.45068114
C        3.70445782       0.86907063       0.20228185      -0.06977388       2.84056202      -1.01125090       1.19825769       1.15474150      -0.67903532
C        3.82409873      -0.22459634      -0.36622118       1.79542827      -1.13374408       1.29125800      -0.01473057       0.30085028       0.27829159
H        3.22023515       1.73185465      -0.30048803       0.49180885       0.05597825       0.34041175       0.20375100      -0.03268171      -0.08152496
H        4.02820670       1.18940773       1.18767158       0.45835599       0.36618446      -0.31479491      -0.67230921      -0.25608371       0.25663605
H        1.03558128       1.20306289       0.56774083       0.94997099      -0.04862787       0.17240238       0.62323208       0.17216671       0.09232970
H        4.52167335      -1.01349351      -0.65336613       0.18028295      -0.09314511      -0.31696374      -0.31373696      -0.38306819      -0.08081964
9
Lattice="13.0 0.0 0.0 0.0 9.0 0.0 0.0 0.0 9.0" Properties=species:S:1:pos:R:3:momenta:R:3:forces:R:3 EPS_SCF=1e-06 energy=-1400.1533388650425 units=gap_units Integrated_spin_density=6.55109e-05 opt_dir=/home/tks32/dft_pbe/apr_8_opt_fragments_subset/singlepoint_1_CO2 time=85.0 free_energy=-1400.1533388650425 pbc="T T T"
C        0.16119241      -0.21406708       0.02879713      -0.63077404       0.31919694       1.47591940      -1.54484042      -1.16373242       0.04943439
O       -0.87703921      -0.74826140      -0.15615949      -3.23302443       2.06091676      -0.54916870       0.39932498       0.50464436      -0.26947294
O        1.30160994       0.24734428       0.20349994       0.05772530      -4.36732137      -1.08781327       0.11851306      -0.27832557       0.44258691
C        3.70520673       0.86979234       0.20185745      -0.06977388       2.84056202      -1.01125090       1.19323801       1.13008034      -0.67455560
C        3.82408953      -0.22440831      -0.36604725       1.79542827      -1.13374408       1.29125800      -0.00584916       0.30340940       0.27751791
H        3.22036250       1.73183422      -0.30053899       0.49180885       0.05597825       0.34041175       0.20446357      -0.01870022      -0.08843180
H        4.02778650       1.18924768       1.18783198       0.45835599       0.36618446      -0.31479491      -0.66977748      -0.25363044       0.25638038
H        1.03597080       1.20317050       0.56779854       0.94997099      -0.04862787       0.17240238       0.62294580       0.15227458       0.08458512
H        4.52147726      -1.01373293      -0.65341664       0.18028295      -0.09314511      -0.31696374      -0.31801837      -0.37602002      -0.07804437
9
Lattice="13.0 0.0 0.0 0.0 9.0 0.0 0.0 0.0 9.0" Properties=species:S:1:pos:R:3:momenta:R:3:forces:R:3 EPS_SCF=1e-06 energy=-1400.1643862901835 units=gap_units Integrated_spin_density=6.55109e-05 opt_dir=/home/tks32/dft_pbe/apr_8_opt_fragments_subset/singlepoint_1_CO2 time=85.0 free_energy=-1400.1643862901835 pbc="T T T"
C        0.15913085      -0.21558972       0.02883666      -0.63077404       0.31919694       1.47591940      -1.13844048      -0.95624145       0.12376562
O       -0.87646143      -0.74758847      -0.15648431      -3.23302443       2.06091676      -0.54916870       0.14437243       0.37221795      -0.31332354
O        1.30180697       0.24700777       0.20405964       0.05772530      -4.36732137      -1.08781327      -0.03605396      -0.31880770       0.42756787
C        3.70670625       0.87122368       0.20100883      -0.06977388       2.84056202      -1.01125090       1.18250161       1.08184160      -0.66521020
C        3.82407719      -0.22402918      -0.36569872       1.79542827      -1.13374408       1.29125800       0.01135181       0.30807970       0.27572581
H        3.22061856       1.73180290      -0.30064602       0.49180885       0.05597825       0.34041175       0.20556234       0.00849911      -0.10193978
H        4.02694497       1.18892817       1.18815370       0.45835599       0.36618446      -0.31479491      -0.66473524      -0.24880334       0.25574909
H        1.03675233       1.20337269       0.56790899       0.94997099      -0.04862787       0.17240238       0.62202934       0.11532514       0.07020848
H        4.52108078      -1.01420854      -0.65351610       0.18028295      -0.09314511      -0.31696374      -0.32658785      -0.36211101      -0.07254334
9
Lattice="13.0 0.0 0.0 0.0 9.0 0.0 0.0 0.0 9.0" Properties=species:S:1:pos:R:3:momenta:R:3:forces:R:3 EPS_SCF=1e-06 energy=-1400.177921574488 units=gap_units Integrated_spin_density=6.55109e-05 opt_dir=/home/tks32/dft_pbe/apr_8_opt_fragments_subset/singlepoint_1_CO2 time=85.0 free_energy=-1400.177921574488 pbc="T T T"
C        0.15639844      -0.21769675       0.02896759      -0.63077404       0.31919694       1.47591940      -0.61405280      -0.68620680       0.22113738
O       -0.87583022      -0.74669608      -0.15701803      -3.23302443       2.06091676      -0.54916870      -0.18942356       0.19882281      -0.37100307
O        1.30195652       0.24645931       0.20489274       0.05772530      -4.36732137      -1.08781327      -0.22644063      -0.36948085       0.40769764
C        3.70896676       0.87334530       0.19973262      -0.06977388       2.84056202      -1.01125090       1.16455075       1.01219643      -0.65016710
C        3.82407484      -0.22345063      -0.36517264       1.79542827      -1.13374408       1.29125800       0.03582060       0.31391354       0.27238472
H        3.22100737       1.73178126      -0.30082088       0.49180885       0.05597825       0.34041175       0.20646129       0.04741286      -0.12145010
H        4.02567550       1.18844894       1.18864028       0.45835599       0.36618446      -0.31479491      -0.65725955      -0.24176858       0.25446779
H        1.03793489       1.20364350       0.56806248       0.94997099      -0.04862787       0.17240238       0.61982249       0.06679691       0.05133697
H        4.52047235      -1.01491554      -0.65366149       0.18028295      -0.09314511      -0.31696374      -0.33947860      -0.34168632      -0.06440422
9
Lattice="13.0 0.0 0.0 0.0 9.0 0.0 0.0 0.0 9.0" Properties=species:S:1:pos:R:3:momenta:R:3:forces:R:3 EPS_SCF=1e-06 energy=-1400.1923412226604 units=gap_units Integrated_spin_density=6.55109e-05 opt_dir=/home/tks32/dft_pbe/apr_8_opt_fragments_subset/singlepoint_1_CO2 time=85.0 free_energy=-1400.1923412226604 pbc="T T T"
C        0.15341228      -0.22018200       0.02927520      -0.63077404       0.31919694       1.47591940      -0.07145273      -0.40218676       0.32463174
O       -0.87542470      -0.74572230      -0.15781677      -3.23302443       2.06091676      -0.54916870      -0.53987380       0.01645782      -0.43180666
O        1.30189678       0.24564860       0.20599244       0.05772530      -4.36732137      -1.08781327      -0.40959422      -0.42024922       0.38551196
C        3.71200069       0.87612346       0.19802603      -0.06977388       2.84056202      -1.01125090       1.13716509       0.92477755      -0.62820977
C        3.82410346      -0.22266052      -0.36446539       1.79542827      -1.13374408       1.29125800       0.06603618       0.31942031       0.26668123
H        3.22153449       1.73180247      -0.30108249       0.49180885       0.05597825       0.34041175       0.20648068       0.09566076      -0.14598414
H        4.02396890       1.18781014       1.18929658       0.45835599       0.36618446      -0.31479491      -0.64757479      -0.23283382       0.25206009
H        1.03953115       1.20394456       0.56824469       0.94997099      -0.04862787       0.17240238       0.61546729       0.01429820       0.03091311
H        4.51963341      -1.01584509      -0.65384762       0.18028295      -0.09314511      -0.31696374      -0.35665370      -0.31534485      -0.05379756
9
Lattice="13.0 0.0 0.0 0.0 9.0 0.0 0.0 0.0 9.0" Properties=species:S:1:pos:R:3:momenta:R:3:forces:R:3 EPS_SCF=1e-06 energy=-1400.207615706099 units=gap_units Integrated_spin_density=6.55109e-05 opt_dir=/home/tks32/dft_pbe/apr_8_opt_fragments_subset/singlepoint_1_CO2 time=85.0 free_energy=-1400.207615706099 pbc="T T T"
C        0.15065829      -0.22279267       0.02985389      -0.63077404       0.31919694       1.47591940       0.37364848      -0.16091816       0.41396639
O       -0.87556168      -0.74483060      -0.15893712      -3.23302443       2.06091676      -0.54916870      -0.82943640      -0.13534387      -0.48191109
O        1.30146219       0.24452823       0.20734060       0.05772530      -4.36732137      -1.08781327      -0.54164638      -0.46102135       0.36348058
C        3.71578850       0.87948362       0.19590602      -0.06977388       2.84056202      -1.01125090       1.09797265       0.82532927      -0.59812945
C        3.82419062      -0.22165244      -0.36358092       1.79542827      -1.13374408       1.29125800       0.09998653       0.32269370       0.25768469
H        3.22220088       1.73191051      -0.30145367       0.49180885       0.05597825       0.34041175       0.20515504       0.14975660      -0.17400548
H        4.02183087       1.18701874       1.19012161       0.45835599       0.36618446      -0.31479491      -0.63615146      -0.22253232       0.24786010
H        1.04154001       1.20422880       0.56843741       0.94997099      -0.04862787       0.17240238       0.60819261      -0.03375519       0.01215764
H        4.51854677      -1.01697488      -0.65406515       0.18028295      -0.09314511      -0.31696374      -0.37772109      -0.28420866      -0.04110336
9
Lattice="13.0 0.0 0.0 0.0 9.0 0.0 0.0 0.0 9.0" Properties=species:S:1:pos:R:3:momenta:R:3:forces:R:3 EPS_SCF=1e-06 energy=-1400.2249072684683 units=gap_units Integrated_spin_density=6.55109e-05 opt_dir=/home/tks32/dft_pbe/apr_8_opt_fragments_subset/singlepoint_1_CO2 time=85.0 free_energy=-1400.2249072684683 pbc="T T T"
C        0.14854129      -0.22529798       0.03077531      -0.63077404       0.31919694       1.47591940       0.62626893      -0.00926639       0.47154780
O       -0.87648762      -0.74415904      -0.16041179      -3.23302443       2.06091676      -0.54916870      -0.99030006      -0.22251333      -0.50857529
O        1.30054689       0.24307376       0.20890569       0.05772530      -4.36732137      -1.08781327      -0.59165804      -0.48456033       0.34340210
C        3.72026007       0.88330645       0.19341919      -0.06977388       2.84056202      -1.01125090       1.04529747       0.72112762      -0.55921438
C        3.82436583      -0.22043289      -0.36253553       1.79542827      -1.13374408       1.29125800       0.13551404       0.32187989       0.24464318
H        3.22299916       1.73215266      -0.30195612       0.49180885       0.05597825       0.34041175       0.20258975       0.20558318      -0.20356073
H        4.01929103       1.18609114       1.19110400       0.45835599       0.36618446      -0.31479491      -0.62360387      -0.21155884       0.24114013
H        1.04393656       1.20445196       0.56862263       0.94997099      -0.04862787       0.17240238       0.59765287      -0.07075190      -0.00243758
H        4.51720326      -1.01826673      -0.65430070       0.18028295      -0.09314511      -0.31696374      -0.40176109      -0.24993989      -0.02694523
9
Lattice="13.0 0.0 0.0 0.0 9.0 0.0 0.0 0.0 9.0" Properties=species:S:1:pos:R:3:momenta:R:3:forces:R:3 EPS_SCF=1e-06 energy=-1400.2451157312275 units=gap_units Integrated_spin_density=6.55109e-05 opt_dir=/home/tks32/dft_pbe/apr_8_opt_fragments_subset/singlepoint_1_CO2 time=85.0 free_energy=-1400.2451157312275 pbc="T T T"
C        0.14726123      -0.22756202       0.03207536      -0.63077404       0.31919694       1.47591940       0.64041093       0.03010420       0.48760127
O       -0.87830965      -0.74377679      -0.16224673      -3.23302443       2.06091676      -0.54916870      -0.98731516      -0.22811456      -0.50425869
O        1.29913244       0.24128097       0.21065711       0.05772530      -4.36732137      -1.08781327      -0.54855059      -0.48774577       0.32618582
C        3.72532806       0.88746694       0.19062275      -0.06977388       2.84056202      -1.01125090       0.97889559       0.61945827      -0.51130671
C        3.82465880      -0.21901395      -0.36135044       1.79542827      -1.13374408       1.29125800       0.17086770       0.31556855       0.22709245
H        3.22391987       1.73257584      -0.30261155       0.49180885       0.05597825       0.34041175       0.19960901       0.25936791      -0.23272307
H        4.01638259       1.18504508       1.19222889       0.45835599       0.36618446      -0.31479491      -0.61039676      -0.20054580       0.23126123
H        1.04669012       1.20458216       0.56878689       0.94997099      -0.04862787       0.17240238       0.58397857      -0.09371743      -0.01179838
H        4.51559300      -1.01967892      -0.65453961       0.18028295      -0.09314511      -0.31696374      -0.42749930      -0.21437538      -0.01205394
9
Lattice="13.0 0.0 0.0 0.0 9.0 0.0 0.0 0.0 9.0" Properties=species:S:1:pos:R:3:momenta:R:3:forces:R:3 EPS_SCF=1e-06 energy=-1400.2702654278412 units=gap_units Integrated_spin_density=6.55109e-05 opt_dir=/home/tks32/dft_pbe/apr_8_opt_fragments_subset/singlepoint_1_CO2 time=85.0 free_energy=-1400.2702654278412 pbc="T T T"
C        0.14678051      -0.22976645       0.03396127      -0.63077404       0.31919694       1.47591940       0.38824812      -0.05196538       0.45638192
O       -0.88132605      -0.74367852      -0.16468264      -3.23302443       2.06091676      -0.54916870      -0.79841273      -0.14333184      -0.46247532
O        1.29705842       0.23890707       0.21279162       0.05772530      -4.36732137      -1.08781327      -0.39944761      -0.46779058       0.31061173
C        3.73154762       0.89234663       0.18722630      -0.06977388       2.84056202      -1.01125090       0.88925233       0.51698435      -0.44810859
C        3.82515870      -0.21722162      -0.35989829       1.79542827      -1.13374408       1.29125800       0.20842046       0.30122771       0.20219291
H        3.22507653       1.73331334      -0.30354625       0.49180885       0.05597825       0.34041175       0.19758094       0.31304696      -0.26259665
H        4.01275356       1.18376317       1.19362657       0.45835599       0.36618446      -0.31479491      -0.59514495      -0.18880556       0.21609532
H        1.05013337       1.20459596       0.56893502       0.94997099      -0.04862787       0.17240238       0.56572319      -0.10374219      -0.01650052
H        4.51347380      -1.02134028      -0.65479092       0.18028295      -0.09314511      -0.31696374      -0.45621975      -0.17562346       0.00439920
9
Lattice="13.0 0.0 0.0 0.0 9.0 0.0 0.0 0.0 9.0" Properties=species:S:1:pos:R:3:momenta:R:3:forces:R:3 EPS_SCF=1e-06 energy=-1400.2987032408785 units=gap_units Integrated_spin_density=6.55109e-05 opt_dir=/home/tks32/dft_pbe/apr_8_opt_fragments_subset/singlepoint_1_CO2 time=85.0 free_energy=-1400.2987032408785 pbc="T T T"
C        0.14691280      -0.23203273       0.03654595      -0.63077404       0.31919694       1.47591940      -0.10483540      -0.24114180       0.37951644
O       -0.88556742      -0.74380586      -0.16782198      -3.23302443       2.06091676      -0.54916870      -0.44082034       0.02098103      -0.38328915
O        1.29437657       0.23582086       0.21539415       0.05772530      -4.36732137      -1.08781327      -0.15247081      -0.42444591       0.29587123
C        3.73910607       0.89799346       0.18315749      -0.06977388       2.84056202      -1.01125090       0.77082553       0.42159824      -0.36705011
C        3.82598092      -0.21497296      -0.35814205       1.79542827      -1.13374408       1.29125800       0.24727170       0.27681081       0.16832268
H        3.22653267       1.73453510      -0.30488435       0.49180885       0.05597825       0.34041175       0.20004786       0.36264569      -0.29088394
H        4.00822372       1.18219666       1.19535061       0.45835599       0.36618446      -0.31479491      -0.57698047      -0.17644771       0.19390841
H        1.05443296       1.20444699       0.56905596       0.94997099      -0.04862787       0.17240238       0.54267186      -0.10398322      -0.01784804
H        4.51065817      -1.02326221      -0.65503311       0.18028295      -0.09314511      -0.31696374      -0.48570993      -0.13601714       0.02145248
9
Lattice="13.0 0.0 0.0 0.0 9.0 0.0 0.0 0.0 9.0" Properties=species:S:1:pos:R:3:momenta:R:3:forces:R:3 EPS_SCF=1e-06 energy=-1400.328151212906 units=gap_units Integrated_spin_density=6.55109e-05 opt_dir=/home/tks32/dft_pbe/apr_8_opt_fragments_subset/singlepoint_1_CO2 time=85.0 free_energy=-1400.328151212906 pbc="T T T"
C        0.14682929      -0.23477530       0.03988789      -0.63077404       0.31919694       1.47591940      -0.66541432      -0.45367014       0.28511606
O       -0.89067869      -0.74388922      -0.17172197      -3.23302443       2.06091676      -0.54916870      -0.02844763       0.20661233      -0.28507316
O        1.29140333       0.23188926       0.21858244       0.05772530      -4.36732137      -1.08781327       0.12590794      -0.37059979       0.27722787
C        3.74818454       0.90445984       0.17836855      -0.06977388       2.84056202      -1.01125090       0.61906711       0.34188702      -0.26774363
C        3.82730327      -0.21217480      -0.35605471       1.79542827      -1.13374408       1.29125800       0.28603598       0.24305579       0.12509985
H        3.22838725       1.73649020      -0.30680789       0.49180885       0.05597825       0.34041175       0.21341523       0.40349378      -0.31439974
H        4.00254730       1.18028092       1.19745841       0.45835599       0.36618446      -0.31479491      -0.55413718      -0.16311733       0.16340048
H        1.05981065       1.20408616       0.56913939       0.94997099      -0.04862787       0.17240238       0.51486997      -0.10770224      -0.02081652
H        4.50686953      -1.02544776      -0.65522945       0.18028295      -0.09314511      -0.31696374      -0.51129711      -0.09995942       0.03718878
9
Lattice="13.0 0.0 0.0 0.0 9.0 0.0 0.0 0.0 9.0" Properties=species:S:1:pos:R:3:momenta:R:3:forces:R:3 EPS_SCF=1e-06 energy=-1400.359366688209 units=gap_units Integrated_spin_density=6.55109e-05 opt_dir=/home/tks32/dft_pbe/apr_8_opt_fragments_subset/singlepoint_1_CO2 time=85.0 free_energy=-1400.359366688209 pbc="T T T"
C        0.14508604      -0.23863136       0.04391873      -0.63077404       0.31919694       1.47591940      -0.96810922      -0.53896905       0.23096001
O       -0.89582653      -0.74345649      -0.17630700      -3.23302443       2.06091676      -0.54916870       0.23452342       0.31412375      -0.20675747
O        1.28876426       0.22705944       0.22244099       0.05772530      -4.36732137      -1.08781327       0.29933919      -0.33700669       0.24471942
C        3.75874654       0.91173574       0.17294381      -0.06977388       2.84056202      -1.01125090       0.43579516       0.28090248      -0.15570034
C        3.82933042      -0.20878903      -0.35366929       1.79542827      -1.13374408       1.29125800       0.32155936       0.20899452       0.07672182
H        3.23076184       1.73943892      -0.30950294       0.49180885       0.05597825       0.34041175       0.24472852       0.43150463      -0.32975208
H        3.99552645       1.17797107       1.19995973       0.45835599       0.36618446      -0.31479491      -0.52441272      -0.14812311       0.12462758
H        1.06643679       1.20345903       0.56917032       0.94997099      -0.04862787       0.17240238       0.48232533      -0.13736543      -0.03345187
H        4.50183065      -1.02786801      -0.65533168       0.18028295      -0.09314511      -0.31696374      -0.52574904      -0.07406110       0.04863293
9
Lattice="13.0 0.0 0.0 0.0 9.0 0.0 0.0 0.0 9.0" Properties=species:S:1:pos:R:3:momenta:R:3:forces:R:3 EPS_SCF=1e-06 energy=-1400.3947034515065 units=gap_units Integrated_spin_density=6.55109e-05 opt_dir=/home/tks32/dft_pbe/apr_8_opt_fragments_subset/singlepoint_1_CO2 time=85.0 free_energy=-1400.3947034515065 pbc="T T T"
C        0.14054074      -0.24403105       0.04859757      -0.63077404       0.31919694       1.47591940      -0.75447721      -0.38433486       0.26649048
O       -0.90026402      -0.74211382      -0.18146660      -3.23302443       2.06091676      -0.54916870       0.18935182       0.27066555      -0.18386331
O        1.28700959       0.22127813       0.22698848       0.05772530      -4.36732137      -1.08781327       0.25600225      -0.34962104       0.18970360
C        3.77051450       0.91978631       0.16709755      -0.06977388       2.84056202      -1.01125090       0.22809161       0.23195584      -0.04220339
C        3.83228007      -0.20481540      -0.35107454       1.79542827      -1.13374408       1.29125800       0.34747678       0.19240317       0.03213090
H        3.23383380       1.74362425      -0.31314051       0.49180885       0.05597825       0.34041175       0.29742052       0.44309246      -0.33393602
H        3.98702218       1.17524409       1.20280887       0.45835599       0.36618446      -0.31479491      -0.48574108      -0.13033724       0.07983317
H        1.07442635       1.20243647       0.56910391       0.94997099      -0.04862787       0.17240238       0.44375273      -0.20823456      -0.06068293
H        4.49529325      -1.03048966      -0.65529208       0.18028295      -0.09314511      -0.31696374      -0.52187741      -0.06558932       0.05252750
9
Lattice="13.0 0.0 0.0 0.0 9.0 0.0 0.0 0.0 9.0" Properties=species:S:1:pos:R:3:momenta:R:3:forces:R:3 EPS_SCF=1e-06 energy=-1400.4312318217028 units=gap_units Integrated_spin_density=6.55109e-05 opt_dir=/home/tks32/dft_pbe/apr_8_opt_fragments_subset/singlepoint_1_CO2 time=85.0 free_energy=-1400.4312318217028 pbc="T T T"
C        0.13325236      -0.25081387       0.05423114      -0.63077404       0.31919694       1.47591940      -0.05866793      -0.01734223       0.38765331
O       -0.90398736      -0.73978576      -0.18727599      -3.23302443       2.06091676      -0.54916870      -0.15133678       0.08824934      -0.22014421
O        1.28620088       0.21424262       0.23221000       0.05772530      -4.36732137      -1.08781327       0.02027796      -0.39915745       0.11413277
C        3.78306383       0.92864955       0.16112363      -0.06977388       2.84056202      -1.01125090       0.00255687       0.18225073       0.05712418
C        3.83648910      -0.20015522      -0.34837403       1.79542827      -1.13374408       1.29125800       0.35289061       0.21548943       0.00244536
H        3.23798121       1.74941357      -0.31798469       0.49180885       0.05597825       0.34041175       0.36915963       0.43210520      -0.32333405
H        3.97677760       1.17205218       1.20593735       0.45835599       0.36618446      -0.31479491      -0.43625043      -0.10797094       0.03493714
H        1.08400477       1.20065576       0.56881550       0.94997099      -0.04862787       0.17240238       0.39588532      -0.31157092      -0.09848927
H        4.48687407      -1.03333952      -0.65506022       0.18028295      -0.09314511      -0.31696374      -0.49451524      -0.08205315       0.04567476
9
Lattice="13.0 0.0 0.0 0.0 9.0 0.0 0.0 0.0 9.0" Properties=species:S:1:pos:R:3:momenta:R:3:forces:R:3 EPS_SCF=1e-06 energy=-1400.465543967472 units=gap_units Integrated_spin_density=6.55109e-05 opt_dir=/home/tks32/dft_pbe/apr_8_opt_fragments_subset/singlepoint_1_CO2 time=85.0 free_energy=-1400.465543967472 pbc="T T T"
C        0.12570936      -0.25765546       0.06169861      -0.63077404       0.31919694       1.47591940       0.52917456       0.28049646       0.47108445
O       -0.90842121      -0.73704393      -0.19411755      -3.23302443       2.06091676      -0.54916870      -0.41671090      -0.05531996      -0.23446725