9
Lattice="13.0 0.0 0.0 0.0 9.0 0.0 0.0 0.0 9.0" Properties=species:S:1:pos:R:3:momenta:R:3:forces:R:3 EPS_SCF=1e-06 energy=-1401.8498565404752 units=gap_units Integrated_spin_density=6.55109e-05 opt_dir=/home/tks32/dft_pbe/apr_8_opt_fragments_subset/singlepoint_1_CO2 time=0.0 free_energy=-1401.8498565404752 pbc="T T T"
C        0.00005179       0.00003613      -0.00008682       5.45409721       0.81308744      -0.21939016      -0.71616738       0.08149990       0.07809224
O       -0.13249936      -1.12387930      -0.32607516       6.91856637       1.60105312       0.69227000      -0.00977911       0.19278933       0.11863095
O        0.13246048       1.12385218       0.32614034       6.44529771      -2.41414056      -0.47287984       0.60777930      -0.29930868      -0.09183242
C        4.52496189       0.32653158       0.25008054      -5.69597901       0.88593916       0.41407752       0.57584133       0.68705914       0.43457040
C        3.47503812      -0.32653161      -0.25008061      -6.07650281      -1.32504139       0.17494715      -0.90079645      -1.10620546      -0.51939980
H        4.40543032       1.17877744       0.91904030      -0.67682574      -0.05175688      -0.30347750      -0.24543084       0.30760741       0.29124826
H        5.54824592       0.03641898       0.01166389      -0.20088037      -0.43346916      -0.14053191       0.55674304       0.06718708      -0.00289936
H        2.45175452      -0.03641814      -0.01166331      -0.11295227       0.37406457       0.09108301       0.27576887       0.09625598      -0.16517844
H        3.59456914      -1.17877784      -0.91904006      -0.29107960       0.55026370      -0.23609827      -0.14395874      -0.02688471      -0.14323184
9
Lattice="13.0 0.0 0.0 0.0 9.0 0.0 0.0 0.0 9.0" Properties=species:S:1:pos:R:3:momenta:R:3:forces:R:3 EPS_SCF=1e-06 energy=-1401.8070900491755 units=gap_units Integrated_spin_density=6.55109e-05 opt_dir=/home/tks32/dft_pbe/apr_8_opt_fragments_subset/singlepoint_1_CO2 time=1.0 free_energy=-1401.8070900491755 pbc="T T T"
C        0.03623791       0.00729190      -0.00192878       4.33379230       0.85202192      -0.22813873      -0.81150355      -1.42441597      -0.30617401
O       -0.09793585      -1.11454172      -0.32170044       5.68534428       1.50966954       0.73141744       0.19302939      -0.43047360      -0.13568442
O        0.16477460       1.10966617       0.32359840       5.35278514      -2.29325472      -0.34703573       1.03688060       1.78035087       0.48871193
C        4.47088644       0.33415081       0.25354078      -6.49319712       0.97275051       0.38506449       1.63794139      -0.77819499      -0.70970603
C        3.41701494      -0.33836308      -0.24894344      -7.19264930      -1.48450644       0.09409432      -0.56899382      -0.25673259      -0.01772384
H        4.33055067       1.17707277       0.88979965      -0.79598878       0.03390291      -0.28193947      -0.06592477       0.98773189       0.86949274
H        5.52046606      -0.00491657      -0.00038016      -0.31185103      -0.41557069      -0.08813917      -0.65869152       0.71712952       0.49794926
H        2.43231444      -0.00229538      -0.00495665      -0.24178677       0.34712648       0.04521078      -0.55752186       0.19174938      -0.04621524
H        3.55973425      -1.12917177      -0.94638500      -0.33644872       0.47786049      -0.31053392      -0.20521585      -0.78714452      -0.64065039
9
Lattice="13.0 0.0 0.0 0.0 9.0 0.0 0.0 0.0 9.0" Properties=species:S:1:pos:R:3:momenta:R:3:forces:R:3 EPS_SCF=1e-06 energy=-1401.6746215812348 units=gap_units Integrated_spin_density=6.55109e-05 opt_dir=/home/tks32/dft_pbe/apr_8_opt_fragments_subset/singlepoint_1_CO2 time=2.0 free_energy=-1401.6746215812348 pbc="T T T"
C        0.07149641       0.01355648      -0.00352211       4.18961870       0.58808281      -0.21318432      -0.79890505      -2.84338816      -0.68243680
O       -0.06268844      -1.10560951      -0.31788300       5.83658565       1.45276544       0.57954698       0.20674923      -1.14170949      -0.40303280
O        0.19805930       1.09635045       0.32172610       5.41636925      -1.94633903      -0.19699841       1.26652863       3.89976846       1.10538090
C        4.41866123       0.34159685       0.25663469      -6.24674736       0.78628328       0.40527052       2.06040657      -1.91621692      -1.48368732
C        3.35741848      -0.35016762      -0.24868033      -7.31324149      -1.43031665      -0.05102324       0.01704591       0.38986945       0.41079465
H        4.24954344       1.18496610       0.86889420      -0.85381452       0.13773793      -0.15637603       0.06415122       1.25600432       1.09991196
H        5.48686769      -0.04281089      -0.00541393      -0.38501136      -0.32317112      -0.01488909      -1.43157696       1.24656717       0.84923773
H        2.40537238       0.03182264       0.00211948      -0.28824680       0.35728396       0.04430368      -1.18585879       0.31792362       0.06089582
H        3.52584041      -1.08642590      -0.97941073      -0.35551208       0.37767338      -0.39665010      -0.19854076      -1.20881845      -0.95706415
9
Lattice="13.0 0.0 0.0 0.0 9.0 0.0 0.0 0.0 9.0" Properties=species:S:1:pos:R:3:momenta:R:3:forces:R:3 EPS_SCF=1e-06 energy=-1401.5505682422906 units=gap_units Integrated_spin_density=6.55109e-05 opt_dir=/home/tks32/dft_pbe/apr_8_opt_fragments_subset/singlepoint_1_CO2 time=3.0 free_energy=-1401.5505682422906 pbc="T T T"
C        0.10543378       0.01783904      -0.00539828       4.07138753       0.41386169      -0.24725092      -0.72950985      -3.96429592      -1.00782828
O       -0.02687552      -1.09733561      -0.31416416       5.81442161       1.19913423       0.56414338      -0.20010234      -2.03571284      -0.69468309
O        0.23137509       1.08530860       0.32064152       5.46339130      -1.55894459      -0.17210227       1.21590921       5.90540747       1.70951904
C        4.36863508       0.34780986       0.25919202      -5.92234737       0.68982411       0.20405339       1.60892804      -2.52755940      -1.84248447
C        3.29771965      -0.36211775      -0.24861166      -7.30574219      -1.44656198       0.13345850       1.30949159       0.71403671       0.47981591
H        4.16708582       1.20239238       0.85856735      -0.84230628       0.21153957      -0.06415624       0.30427320       1.00629956       0.94965096
H        5.44267225      -0.06969705      -0.00467634      -0.51883287      -0.21330493       0.04821430      -1.73761583       1.57895576       1.04365547
H        2.37174098       0.06988827       0.00577954      -0.40903545       0.41494358       0.02540587      -1.49353444       0.40290776       0.14159045
H        3.49197279      -1.05376668      -1.02422724      -0.35093626       0.28950832      -0.49176601      -0.27783958      -1.08003911      -0.77923599
9
Lattice="13.0 0.0 0.0 0.0 9.0 0.0 0.0 0.0 9.0" Properties=species:S:1:pos:R:3:momenta:R:3:forces:R:3 EPS_SCF=1e-06 energy=-1401.4474623351223 units=gap_units Integrated_spin_density=6.55109e-05 opt_dir=/home/tks32/dft_pbe/apr_8_opt_fragments_subset/singlepoint_1_CO2 time=4.0 free_energy=-1401.4474623351223 pbc="T T T"
C        0.13751780       0.02009807      -0.00771828       3.83401644       0.10215286      -0.30272091      -0.75647870      -4.47581160      -1.19155721
O        0.00909428      -1.09023081      -0.31105501       5.85595134       1.02640977       0.45889368      -0.47036453      -2.92120069      -0.97914372
O        0.26540774       1.07748373       0.32042474       5.57674072      -0.91675655       0.05513117       0.95230845       7.34604293       2.15065098
C        4.32068648       0.35240749       0.25982861      -5.80104505       0.35788733      -0.01122505       0.43910267      -2.65851440      -1.84838987
C        3.23899482      -0.37417760      -0.24733250      -7.08094126      -1.40037582       0.12574407       2.29954060       1.04792506       0.33780985
H        4.08681982       1.22789756       0.85621413      -0.79038513       0.29900812       0.01256534       0.74239993       0.38161103       0.53951527
H        5.38383001      -0.08428219       0.00387841      -0.68298578      -0.06848502       0.13455189      -1.59750662       1.69495291       1.08629721
H        2.32452675       0.11030232       0.00742855      -0.54448456       0.42301594       0.03037325      -1.16525455       0.24058734       0.11549849
H        3.45599780      -1.03167236      -1.07316886      -0.36686672       0.17714336      -0.50331344      -0.44374724      -0.65559258      -0.21068101
9
Lattice="13.0 0.0 0.0 0.0 9.0 0.0 0.0 0.0 9.0" Properties=species:S:1:pos:R:3:momenta:R:3:forces:R:3 EPS_SCF=1e-06 energy=-1401.3418572975572 units=gap_units Integrated_spin_density=6.55109e-05 opt_dir=/home/tks32/dft_pbe/apr_8_opt_fragments_subset/singlepoint_1_CO2 time=5.0 free_energy=-1401.3418572975572 pbc="T T T"
C        0.16818982       0.01925811      -0.01085597       3.65034013      -0.26394012      -0.45399097      -0.85835256      -3.84630863      -1.04632120
O        0.04440527      -1.08532600      -0.30865004       5.67886877       0.51872535       0.32313584      -0.58112975      -3.74934489      -1.23641473
O        0.29955189       1.07445253       0.32120421       5.56681262       0.00639366       0.23174546       0.41707803       7.67174886       2.25093872
C        4.27380604       0.35473192       0.25930972      -5.65370070       0.16709423      -0.13705955      -0.93536068      -2.28856532      -1.53465339
C        3.18314275      -0.38546479      -0.24578985      -6.65067701      -1.34894459       0.20491727       2.67646047       1.52320041       0.11226271
H        4.01192153       1.25815183       0.86039325      -0.71443047       0.30197197       0.07206222       1.18893813      -0.40118918       0.02163459
H        5.31036236      -0.08253379       0.01955210      -0.81175678       0.09106857       0.19400007      -0.94097474       1.52892808       0.97588576
H        2.26822232       0.15098932       0.01062929      -0.62076290       0.40360439       0.04915803      -0.34630828      -0.25048393      -0.04128985
H        3.41692408      -1.01729388      -1.12157683      -0.44469366       0.12402654      -0.48396837      -0.62035063      -0.18798540       0.49795738
9
Lattice="13.0 0.0 0.0 0.0 9.0 0.0 0.0 0.0 9.0" Properties=species:S:1:pos:R:3:momenta:R:3:forces:R:3 EPS_SCF=1e-06 energy=-1401.15646344937 units=gap_units Integrated_spin_density=6.55109e-05 opt_dir=/home/tks32/dft_pbe/apr_8_opt_fragments_subset/singlepoint_1_CO2 time=6.0 free_energy=-1401.15646344937 pbc="T T T"
C        0.19717056       0.01529159      -0.01448440       3.44040887      -0.73444560      -0.48257399      -1.08994558      -2.02998433      -0.53927024
O        0.07874605      -1.08291736      -0.30695486       5.56433060       0.23507098       0.19688949      -0.58295557      -4.52071845      -1.45151581
O        0.33353268       1.07662488       0.32303814       5.50466521       0.75119573       0.39936073      -0.36758255       6.83543406       1.98809730
C        4.22779192       0.35574835       0.25755584      -5.66227291       0.11548816      -0.25044162      -2.29327118      -1.69526041      -1.09123715
C        3.13027843      -0.39602939      -0.24435468      -6.33658310      -1.21289169       0.17536752       2.55437441       2.16332940      -0.02746076
H        3.94876353       1.28359658       0.86767242      -0.58998536       0.19816171       0.05981090       1.45894146      -0.98926402      -0.37595699
H        5.22929548      -0.06963716       0.04218178      -0.82991461       0.16353986       0.27484889       0.24074476       1.05676726       0.71432274
H        2.20660951       0.19131899       0.01407374      -0.60736388       0.38767575       0.02541723       0.79495426      -0.97728598      -0.29820946
H        3.37123832      -1.00763786      -1.16391148      -0.48328484       0.09620511      -0.39867914      -0.71526001       0.15698246       1.08123039
9
Lattice="13.0 0.0 0.0 0.0 9.0 0.0 0.0 0.0 9.0" Properties=species:S:1:pos:R:3:momenta:R:3:forces:R:3 EPS_SCF=1e-06 energy=-1400.867336050454 units=gap_units Integrated_spin_density=6.55109e-05 opt_dir=/home/tks32/dft_pbe/apr_8_opt_fragments_subset/singlepoint_1_CO2 time=7.0 free_energy=-1400.867336050454 pbc="T T T"
C        0.22484304       0.00876073      -0.01851952       3.31876121      -0.75616810      -0.48184389      -1.42852142       0.54707180       0.21831118
O        0.11292851      -1.08324759      -0.30610816       5.44871454      -0.34101692       0.07570663      -0.65642250      -5.29004395      -1.67432059
O        0.36643772       1.08373347       0.32576327       5.23543133       1.43623026       0.52406595      -0.99505371       5.11116173       1.44994267
C        4.18021684       0.35605583       0.25470774      -5.92735477       0.02980733      -0.46025183      -3.29929900      -1.00100449      -0.64975654
C        3.08037858      -0.40548533      -0.24236319      -5.88132034      -1.06564047       0.23448295       2.21999424       2.72147129      -0.15211192
H        3.89892270       1.29833360       0.86968575      -0.40545984       0.05834586      -0.02811580       1.51379619      -1.21482962      -0.53646546
H        5.15256410      -0.04997585       0.07383194      -0.71680339       0.22959880       0.36886235       1.61980708       0.41929860       0.40156713
H        2.15147854       0.22497137       0.01785493      -0.49856818       0.27096309       0.05107255       1.81601061      -1.62472498      -0.53697017
H        3.31987028      -0.99644504      -1.19976011      -0.57340058       0.13788016      -0.28397891      -0.79031149       0.33159963       1.47980370
9
Lattice="13.0 0.0 0.0 0.0 9.0 0.0 0.0 0.0 9.0" Properties=species:S:1:pos:R:3:momenta:R:3:forces:R:3 EPS_SCF=1e-06 energy=-1400.639324466111 units=gap_units Integrated_spin_density=6.55109e-05 opt_dir=/home/tks32/dft_pbe/apr_8_opt_fragments_subset/singlepoint_1_CO2 time=8.0 free_energy=-1400.639324466111 pbc="T T T"
C        0.25155938       0.00292883      -0.02201956       3.22826183      -0.59332327      -0.40465234      -1.43961527       2.52564709       0.84108578
O        0.14518918      -1.08725717      -0.30660990       5.08278534      -0.98661558      -0.23300479      -0.58609086      -5.46601848      -1.77024296
O        0.39804621       1.09415093       0.32918786       5.05965592       1.90414592       0.59438627      -1.23343241       3.31170274       0.90250707
C        4.13117626       0.35593931       0.25096746      -6.07019905      -0.02107170      -0.38694009      -3.86014928      -0.54134813      -0.41059936
C        3.03367583      -0.41275434      -0.23990609      -5.54384187      -0.67542722       0.35178385       1.79881541       3.01879036      -0.24712081
H        3.86562404       1.30081993       0.86317489      -0.30175724      -0.04702969      -0.12739481       1.30712677      -1.12739350      -0.49427111
H        5.09273938      -0.02870738       0.11100625      -0.49682688       0.21368588       0.39240305       2.56961014      -0.07475586       0.20415329
H        2.11253760       0.24273858       0.02083885      -0.30949203       0.07557733      -0.01149357       2.30386394      -1.93748549      -0.64794870
H        3.26070484      -0.98217841      -1.22280363      -0.64858602       0.13005832      -0.17508758      -0.86012845       0.29086129       1.62243679
9
Lattice="13.0 0.0 0.0 0.0 9.0 0.0 0.0 0.0 9.0" Properties=species:S:1:pos:R:3:momenta:R:3:forces:R:3 EPS_SCF=1e-06 energy=-1400.6250913575545 units=gap_units Integrated_spin_density=6.55109e-05 opt_dir=/home/tks32/dft_pbe/apr_8_opt_fragments_subset/singlepoint_1_CO2 time=9.0 free_energy=-1400.6250913575545 pbc="T T T"
C        0.27722241      -0.00123322      -0.02461026       3.06975181      -0.30403506      -0.26108553      -1.29813531       3.55243680       1.19457078
O        0.17622772      -1.09564929      -0.30862974       4.98249448      -1.76019119      -0.44100331      -0.52097167      -4.79043779      -1.62815762
O        0.42859616       1.10704597       0.33319018       4.87892625       2.32631705       0.67482920      -1.24147702       1.50886175       0.36954316
C        4.07982413       0.35607101       0.24784027      -6.46593474      -0.04661370      -0.41864334      -3.08272693      -0.64373871      -0.47202264
C        2.98904806      -0.41637952      -0.23728419      -5.34219030      -0.29950881       0.37687047       1.50525315       2.82644372      -0.47201893
H        3.84563056       1.29053650       0.84788156      -0.11455013      -0.14364664      -0.18300013       0.98064889      -0.64792682      -0.19608711
H        5.05838603      -0.01001432       0.14804489      -0.21132510       0.20066185       0.38799879       2.39927739      -0.15778474       0.17486781
H        2.09367042       0.24061876       0.01590995      -0.07446841      -0.09658480      -0.09265693       2.08013766      -1.77767422      -0.55233733
H        3.19425793      -0.96871806      -1.23419534      -0.72270385       0.12360131      -0.04330921      -0.82200617       0.12982002       1.58164187
9
Lattice="13.0 0.0 0.0 0.0 9.0 0.0 0.0 0.0 9.0" Properties=species:S:1:pos:R:3:momenta:R:3:forces:R:3 EPS_SCF=1e-06 energy=-1400.7216206303171 units=gap_units Integrated_spin_density=6.55109e-05 opt_dir=/home/tks32/dft_pbe/apr_8_opt_fragments_subset/singlepoint_1_CO2 time=10.0 free_energy=-1400.7216206303171 pbc="T T T"
C        0.30117370      -0.00171992      -0.02567978       2.77249412       0.08529656       0.01220406      -0.98787227       3.43190718       1.20852635
O        0.20661002      -1.10750803      -0.31191471       4.91895693      -2.08326526      -0.62353781      -0.50427661      -3.23915150      -1.21825111
O        0.45784936       1.12139769       0.33762998       4.72341975       2.39874287       0.71189124      -1.18549815      -0.06157694      -0.06728080
C        4.02697264       0.35520533       0.24347500      -6.44971211      -0.17985719      -0.55472098      -1.06884273      -0.98797890      -0.55546743
C        2.94586924      -0.41808781      -0.23416385      -5.18922382      -0.13882339       0.30907071       1.58108927       1.97251922      -0.83369504
H        3.83924314       1.27584819       0.82854856      -0.04554149      -0.14498976      -0.21003843       0.51386699       0.07231073       0.23452820
H        5.04581548       0.00996787       0.18452299      -0.05998499       0.19811584       0.40091311       1.30078818      -0.04209660       0.13033209
H        2.09688150       0.22257020       0.00385458       0.09223828      -0.22963216      -0.17298619       0.97521492      -0.99389098      -0.19918773
H        3.12233903      -0.95906201      -1.23003617      -0.76264668       0.09441248       0.12720430      -0.62446960      -0.15204220       1.30049546
9
Lattice="13.0 0.0 0.0 0.0 9.0 0.0 0.0 0.0 9.0" Properties=species:S:1:pos:R:3:momenta:R:3:forces:R:3 EPS_SCF=1e-06 energy=-1400.648867499531 units=gap_units Integrated_spin_density=6.55109e-05 opt_dir=/home/tks32/dft_pbe/apr_8_opt_fragments_subset/singlepoint_1_CO2 time=11.0 free_energy=-1400.648867499531 pbc="T T T"
C        0.32333459       0.00066114      -0.02470487       2.67786392       0.49622935       0.19500904      -0.60855649       2.60517721       0.99349122
O        0.23636499      -1.12112349      -0.31597913       4.76155305      -2.21915229      -0.73332752      -0.67163391      -1.30434065      -0.63479052
O        0.48601318       1.13615263       0.34176001       4.52591010       2.32734662       0.62723390      -1.20151925      -1.30250872      -0.39233011
C        3.97490992       0.35301945       0.23814468      -6.29746293      -0.38847210      -0.68459734       1.37439138      -1.16495088      -0.46164911
C        2.90473179      -0.41912198      -0.23221991      -4.93350669      -0.10877690       0.19944620       2.09340283       0.69615826      -1.03863391
H        3.83751091       1.26281725       0.80793427       0.00414912      -0.11202731      -0.20037753      -0.01572037       0.83929560       0.65983071
H        5.04229163       0.02884904       0.22707430      -0.02411389       0.18854668       0.45952936      -0.05118913      -0.04125038      -0.05496729
H        2.10582536       0.19883433      -0.01061950       0.08702851      -0.24931070      -0.12126952      -0.67633729       0.25283120       0.29655147
H        3.04584360      -0.94926522      -1.20980634      -0.80142119       0.06561665       0.25835341      -0.24283777      -0.58041166       0.63249755
9
Lattice="13.0 0.0 0.0 0.0 9.0 0.0 0.0 0.0 9.0" Properties=species:S:1:pos:R:3:momenta:R:3:forces:R:3 EPS_SCF=1e-06 energy=-1400.3100989134578 units=gap_units Integrated_spin_density=6.55109e-05 opt_dir=/home/tks32/dft_pbe/apr_8_opt_fragments_subset/singlepoint_1_CO2 time=12.0 free_energy=-1400.3100989134578 pbc="T T T"
C        0.34476715       0.00533023      -0.02258239       2.51832310       0.60992488       0.30888681      -0.32477574       1.29323520       0.62603182
O        0.26523691      -1.13503835      -0.32056580       4.65085399      -2.17277446      -0.76552315      -0.99067740       0.72476227       0.00186617
O        0.51332551       1.14956559       0.34545582       4.41013784       2.01725688       0.57435176      -1.23426886      -2.18883902      -0.64217909
C        3.92483262       0.34956768       0.23274367      -6.03422762      -0.49081728      -0.64157096       3.50475595      -0.94417797      -0.14848501
C        2.86527575      -0.41921195      -0.23159585      -4.57443601       0.00010206      -0.04631578       2.94729435      -0.69275983      -1.08054381
H        3.83762825       1.25743338       0.78956450      -0.01230066       0.02976181      -0.15232129      -0.48427105       1.39317189       0.90629683
H        5.03751412       0.04973909       0.27255364      -0.09167132       0.23740563       0.45603658      -1.11319951      -0.24467530      -0.34560615
H        2.10926188       0.17700891      -0.01881950      -0.04004034      -0.19213205      -0.02005789      -2.39502318       1.60246443       0.79968770
H        2.96677629      -0.94841312      -1.18294617      -0.82663899      -0.03872747       0.28651393       0.09016544      -0.94318168      -0.11706847
9
Lattice="13.0 0.0 0.0 0.0 9.0 0.0 0.0 0.0 9.0" Properties=species:S:1:pos:R:3:momenta:R:3:forces:R:3 EPS_SCF=1e-06 energy=-1399.8824617679163 units=gap_units Integrated_spin_density=6.55109e-05 opt_dir=/home/tks32/dft_pbe/apr_8_opt_fragments_subset/singlepoint_1_CO2 time=13.0 free_energy=-1399.8824617679163 pbc="T T T"
C        0.36575104       0.01050973      -0.02008131       2.57554180       0.67089430       0.33567057      -0.23150739       0.04387999       0.25987815
O        0.29382487      -1.14742995      -0.32474055       4.66885300      -1.88584623      -0.69046388      -1.37418876       2.46043914       0.60823471
O        0.53988716       1.16166633       0.34830934       4.26124193       1.77504606       0.40725000      -1.42381289      -2.81948021      -0.87420340
C        3.87687052       0.34449742       0.22747574      -5.66164194      -0.68540412      -0.59416699       4.88639844      -0.22342221       0.40426071
C        2.82835777      -0.42035354      -0.23243642      -4.41213434      -0.17962034      -0.11782587       3.38041363      -1.36051773      -0.82219628
H        3.83537676       1.26804506       0.77805964      -0.06712355       0.17083524      -0.09689551      -0.79285149       1.28829936       0.73269174
H        5.02192038       0.07225433       0.31671738      -0.25058305       0.21673186       0.42771742      -1.64617569      -0.54849298      -0.60953631
H        2.09204384       0.16817872      -0.01402640      -0.32857050       0.02381343       0.08082805      -3.15844159       2.33007864       1.11989514
H        2.88786978      -0.95579189      -1.15644279      -0.78558334      -0.10645019       0.24788620       0.36016573      -1.17078401      -0.81902447
9
Lattice="13.0 0.0 0.0 0.0 9.0 0.0 0.0 0.0 9.0" Properties=species:S:1:pos:R:3:momenta:R:3:forces:R:3 EPS_SCF=1e-06 energy=-1399.55797141888 units=gap_units Integrated_spin_density=6.55109e-05 opt_dir=/home/tks32/dft_pbe/apr_8_opt_fragments_subset/singlepoint_1_CO2 time=14.0 free_energy=-1399.55797141888 pbc="T T T"
C        0.38665847       0.01540459      -0.01741999       2.52540875       0.49784107       0.27580598      -0.43423100      -1.06174560      -0.08487324
O        0.32201968      -1.15773807      -0.32859904       4.54559392      -1.45844247      -0.54191610      -1.70974341       3.76858819       1.11101474
O        0.56578357       1.17136631       0.35000372       4.17541954       1.38391961       0.18087050      -1.66753395      -3.07773230      -0.96470224
C        3.83261788       0.33941272       0.22320373      -5.17939447      -0.56280343      -0.51239329       5.40650636       0.64466642       0.96763476
C        2.79317628      -0.42266766      -0.23313983      -4.20225524      -0.25621358      -0.03904829       2.49516100      -0.62520590      -0.22986805
H        3.82481384       1.29250441       0.76970675      -0.15351297       0.29350201      -0.06792670      -0.98243852       0.70203579       0.29645626
H        4.99151882       0.08934342       0.35325480      -0.39449644       0.10249990       0.35916078      -1.74081591      -0.79718982      -0.75648685
H        2.04677406       0.18334435      -0.00117397      -0.57925690       0.25805040       0.19036906      -1.98033660       1.74118842       0.91891123
H        2.81295199      -0.97301716      -1.13555684      -0.73750621      -0.25835351       0.15507806       0.61343202      -1.29460519      -1.25808661
9
Lattice="13.0 0.0 0.0 0.0 9.0 0.0 0.0 0.0 9.0" Properties=species:S:1:pos:R:3:momenta:R:3:forces:R:3 EPS_SCF=1e-06 energy=-1399.274398445914 units=gap_units Integrated_spin_density=6.55109e-05 opt_dir=/home/tks32/dft_pbe/apr_8_opt_fragments_subset/singlepoint_1_CO2 time=15.0 free_energy=-1399.274398445914 pbc="T T T"
C        0.40642855       0.01853945      -0.01514935       2.33654373       0.26232335       0.26478954      -0.74061271      -1.83347179      -0.34819464
O        0.34975253      -1.16586042      -0.33198693       4.37224069      -1.20824535      -0.51552897      -1.92409163       4.60654356       1.45927921
O        0.59058603       1.17864108       0.35155425       3.98169156       0.97857440       0.26384214      -1.76323060      -3.21843622      -1.03760500
C        3.79242266       0.33545725       0.21967864      -4.62233648      -0.34141760      -0.36976342       5.33369651       1.40612797       1.43204806
C        2.76012606      -0.42440122      -0.23406611      -3.89431749      -0.19636519      -0.11834027       1.27678309       0.40329378       0.01944100
H        3.80467385       1.32362432       0.76458371      -0.28084633       0.34124138      -0.06065118      -1.09697840      -0.05173907      -0.20397210
H        4.94569037       0.09701614       0.38386676      -0.53069754       0.07464971       0.27919389      -1.53990088      -0.95043530      -0.81126884
H        1.98445692       0.21689015       0.02172083      -0.68416416       0.40985338       0.27520441      -0.23764993       0.61563854       0.48210983
H        2.74459097      -1.00146812      -1.12879315      -0.67811398      -0.32061408      -0.01874615       0.69198455      -0.97752146      -0.99183751
9
Lattice="13.0 0.0 0.0 0.0 9.0 0.0 0.0 0.0 9.0" Properties=species:S:1:pos:R:3:momenta:R:3:forces:R:3 EPS_SCF=1e-06 energy=-1398.9386651185716 units=gap_units Integrated_spin_density=6.55109e-05 opt_dir=/home/tks32/dft_pbe/apr_8_opt_fragments_subset/singlepoint_1_CO2 time=16.0 free_energy=-1398.9386651185716 pbc="T T T"
C        0.42464059       0.01987799      -0.01358563       2.14031903       0.10054846       0.18258548      -1.03207666      -2.29549385      -0.51206666
O        0.37644501      -1.17177183      -0.33478420       4.38604957      -0.73540309      -0.41978065      -2.06219242       5.06167586       1.67218627
O        0.61438629       1.18344404       0.35267535       3.71889554       0.54330639       0.00668711      -1.67073396      -3.24999108      -1.06748427
C        3.75690012       0.33312899       0.21819500      -4.07575824      -0.23454822      -0.03450130       4.68073651       1.92198097       1.67918669
C        2.72828502      -0.42511407      -0.23501601      -3.90121496       0.04477658      -0.07685659       0.54979301       1.02443268      -0.18479612
H        3.77314420       1.35673215       0.75730907      -0.36925978       0.32533951      -0.08097848      -1.13664827      -0.71056871      -0.61184002
H        4.88893233       0.09940435       0.40786162      -0.64791315       0.00467797       0.22051128      -1.19232669      -1.03642983      -0.79047818
H        1.92060564       0.25661326       0.04687358      -0.61265539       0.35930531       0.26276303       1.13077419      -0.43320481       0.01264887
H        2.68098157      -1.03880671      -1.13369739      -0.63846261      -0.40800292      -0.06042989       0.73267430      -0.28240122      -0.19735658
9
Lattice="13.0 0.0 0.0 0.0 9.0 0.0 0.0 0.0 9.0" Properties=species:S:1:pos:R:3:momenta:R:3:forces:R:3 EPS_SCF=1e-06 energy=-1398.574460454305 units=gap_units Integrated_spin_density=6.55109e-05 opt_dir=/home/tks32/dft_pbe/apr_8_opt_fragments_subset/singlepoint_1_CO2 time=17.0 free_energy=-1398.574460454305 pbc="T T T"
C        0.44182261       0.01974530      -0.01240613       2.03484495      -0.03657817       0.16492042      -1.38912915      -2.49746993      -0.59266438
O        0.40197365      -1.17478099      -0.33741144       3.88663864      -0.24678017      -0.40301662      -2.17582117       5.15786079       1.75856099