9
Lattice="13.0 0.0 0.0 0.0 9.0 0.0 0.0 0.0 9.0" Properties=species:S:1:pos:R:3:momenta:R:3:forces:R:3 EPS_SCF=1e-06 energy=-1401.8498565404752 units=gap_units Integrated_spin_density=6.55109e-05 opt_dir=/home/tks32/dft_pbe/apr_8_opt_fragments_subset/singlepoint_1_CO2 time=0.0 free_energy=-1401.8498565404752 pbc="T T T"
C       -2.66661630       0.00003508      -0.00008450       5.45409721       0.81308744      -0.21939016      -0.71616738       0.08149990       0.07809224
O       -2.79916745      -1.12388035      -0.32607284       6.91856637       1.60105312       0.69227000      -0.00977911       0.19278933       0.11863095
O       -2.53420761       1.12385113       0.32614266       6.44529771      -2.41414056      -0.47287984       0.60777930      -0.29930868      -0.09183242
C        1.85829380       0.32653053       0.25008286      -5.69597901       0.88593916       0.41407752       0.57584133       0.68705914       0.43457040
C        0.80837003      -0.32653266      -0.25007829      -6.07650281      -1.32504139       0.17494715      -0.90079645      -1.10620546      -0.51939980
H        1.73876223       1.17877639       0.91904262      -0.67682574      -0.05175688      -0.30347750      -0.24543084       0.30760741       0.29124826
H        2.88157783       0.03641793       0.01166621      -0.20088037      -0.43346916      -0.14053191       0.55674304       0.06718708      -0.00289936
H       -0.21491357      -0.03641919      -0.01166099      -0.11295227       0.37406457       0.09108301       0.27576887       0.09625598      -0.16517844
H        0.92790105      -1.17877889      -0.91903774      -0.29107960       0.55026370      -0.23609827      -0.14395874      -0.02688471      -0.14323184
9
Lattice="13.0 0.0 0.0 0.0 9.0 0.0 0.0 0.0 9.0" Properties=species:S:1:pos:R:3:momenta:R:3:forces:R:3 EPS_SCF=1e-06 energy=-1401.8070900491755 units=gap_units Integrated_spin_density=6.55109e-05 opt_dir=/home/tks32/dft_pbe/apr_8_opt_fragments_subset/singlepoint_1_CO2 time=1.0 free_energy=-1401.8070900491755 pbc="T T T"
C       -2.61053568       0.00003774      -0.00221489       4.33379230       0.85202192      -0.22813873      -0.81150355      -1.42441597      -0.30617401
O       -2.74096862      -1.12431439      -0.31215394       5.68534428       1.50966954       0.73141744       0.19302939      -0.43047360      -0.13568442
O       -2.48295678       1.10832832       0.31409532       5.35278514      -2.29325472      -0.34703573       1.03688060       1.78035087       0.48871193
C        1.82864297       0.32705248       0.25702487      -6.49319712       0.97275051       0.38506449       1.63794139      -0.77819499      -0.70970603
C        0.77184689      -0.34224572      -0.23705769      -7.19264930      -1.48450644       0.09409432      -0.56899382      -0.25673259      -0.01772384
H        1.68504322       1.18672562       0.90491395      -0.79598878       0.03390291      -0.28193947      -0.06592477       0.98773189       0.86949274
H        2.86242736      -0.00146389       0.01072865      -0.31185103      -0.41557069      -0.08813917      -0.65869152       0.71712952       0.49794926
H       -0.22424233      -0.00214461       0.00878729      -0.24178677       0.34712648       0.04521078      -0.55752186       0.19174938      -0.04621524
H        0.91074297      -1.15197555      -0.94412356      -0.33644872       0.47786049      -0.31053392      -0.20521585      -0.78714452      -0.64065039
9
Lattice="13.0 0.0 0.0 0.0 9.0 0.0 0.0 0.0 9.0" Properties=species:S:1:pos:R:3:momenta:R:3:forces:R:3 EPS_SCF=1e-06 energy=-1401.6746215812348 units=gap_units Integrated_spin_density=6.55109e-05 opt_dir=/home/tks32/dft_pbe/apr_8_opt_fragments_subset/singlepoint_1_CO2 time=2.0 free_energy=-1401.6746215812348 pbc="T T T"
C       -2.55441755      -0.00056547      -0.00351916       4.18961870       0.58808281      -0.21318432      -0.79890505      -2.84338816      -0.68243680
O       -2.68331038      -1.12422472      -0.29796486       5.83658565       1.45276544       0.57954698       0.20674923      -1.14170949      -0.40303280
O       -2.42957715       1.09482796       0.30413259       5.41636925      -1.94633903      -0.19699841       1.26652863       3.89976846       1.10538090
C        1.79990350       0.32699669       0.26324214      -6.24674736       0.78628328       0.40527052       2.06040657      -1.91621692      -1.48368732
C        0.73576438      -0.35946105      -0.22560886      -7.31324149      -1.43031665      -0.05102324       0.01704591       0.38986945       0.41079465
H        1.63190897       1.19618009       0.89155530      -0.85381452       0.13773793      -0.15637603       0.06415122       1.25600432       1.09991196
H        2.84057041      -0.03595579       0.01340840      -0.38501136      -0.32317112      -0.01488909      -1.43157696       1.24656717       0.84923773
H       -0.23558669       0.03060597       0.02534995      -0.28824680       0.35728396       0.04430368      -1.18585879       0.31792362       0.06089582
H        0.89474451      -1.12840368      -0.97059551      -0.35551208       0.37767338      -0.39665010      -0.19854076      -1.20881845      -0.95706415
9
Lattice="13.0 0.0 0.0 0.0 9.0 0.0 0.0 0.0 9.0" Properties=species:S:1:pos:R:3:momenta:R:3:forces:R:3 EPS_SCF=1e-06 energy=-1401.5505682422906 units=gap_units Integrated_spin_density=6.55109e-05 opt_dir=/home/tks32/dft_pbe/apr_8_opt_fragments_subset/singlepoint_1_CO2 time=3.0 free_energy=-1401.5505682422906 pbc="T T T"
C       -2.49839956      -0.00222776      -0.00348968       4.07138753       0.41386169      -0.24725092      -0.72950985      -3.96429592      -1.00782828
O       -2.62587465      -1.12412342      -0.28291742       5.81442161       1.19913423       0.56414338      -0.20010234      -2.03571284      -0.69468309
O       -2.37348900       1.08442947       0.29710863       5.46339130      -1.55894459      -0.17210227       1.21590921       5.90540747       1.70951904
C        1.77276870       0.32561549       0.26817486      -5.92234737       0.68982411       0.20405339       1.60892804      -2.52755940      -1.84248447
C        0.70084159      -0.37843741      -0.21654877      -7.30574219      -1.44656198       0.13345850       1.30949159       0.71403671       0.47981591
H        1.58088249       1.20768031       0.87953810      -0.84230628       0.21153957      -0.06415624       0.30427320       1.00629956       0.94965096
H        2.81407076      -0.06522923       0.02258565      -0.51883287      -0.21330493       0.04821430      -1.73761583       1.57895576       1.04365547
H       -0.25015533       0.06222026       0.03515416      -0.40903545       0.41494358       0.02540587      -1.49353444       0.40290776       0.14159045
H        0.87935499      -1.10992773      -0.99960552      -0.35093626       0.28950832      -0.49176601      -0.27783958      -1.08003911      -0.77923599
9
Lattice="13.0 0.0 0.0 0.0 9.0 0.0 0.0 0.0 9.0" Properties=species:S:1:pos:R:3:momenta:R:3:forces:R:3 EPS_SCF=1e-06 energy=-1401.4474623351223 units=gap_units Integrated_spin_density=6.55109e-05 opt_dir=/home/tks32/dft_pbe/apr_8_opt_fragments_subset/singlepoint_1_CO2 time=4.0 free_energy=-1401.4474623351223 pbc="T T T"
C       -2.44278817      -0.00490565      -0.00218888       3.83401644       0.10215286      -0.30272091      -0.75647870      -4.47581160      -1.19155721
O       -2.56873938      -1.12447941      -0.26803615       5.85595134       1.02640977       0.45889368      -0.47036453      -2.92120069      -0.97914372
O       -2.31499098       1.07758383       0.29350769       5.57674072      -0.91675655       0.05513117       0.95230845       7.34604293       2.15065098
C        1.74726919       0.32265841       0.27123616      -5.80104505       0.35788733      -0.01122505       0.43910267      -2.65851440      -1.84838987
C        0.66758036      -0.39867733      -0.20993327      -7.08094126      -1.40037582       0.12574407       2.29954060       1.04792506       0.33780985
H        1.53394383       1.22071755       0.86870714      -0.79038513       0.29900812       0.01256534       0.74239993       0.38161103       0.53951527
H        2.78254262      -0.08745480       0.03892987      -0.68298578      -0.06848502       0.13455189      -1.59750662       1.69495291       1.08629721
H       -0.26796396       0.09208339       0.03826216      -0.54448456       0.42301594       0.03037325      -1.16525455       0.24058734       0.11549849
H        0.86314649      -1.09752599      -1.03048471      -0.36686672       0.17714336      -0.50331344      -0.44374724      -0.65559258      -0.21068101
9
Lattice="13.0 0.0 0.0 0.0 9.0 0.0 0.0 0.0 9.0" Properties=species:S:1:pos:R:3:momenta:R:3:forces:R:3 EPS_SCF=1e-06 energy=-1401.3418572975572 units=gap_units Integrated_spin_density=6.55109e-05 opt_dir=/home/tks32/dft_pbe/apr_8_opt_fragments_subset/singlepoint_1_CO2 time=5.0 free_energy=-1401.3418572975572 pbc="T T T"
C       -2.38819036      -0.00859291      -0.00042234       3.65034013      -0.26394012      -0.45399097      -0.85835256      -3.84630863      -1.04632120
O       -2.51259469      -1.12527496      -0.25561120       5.67886877       0.51872535       0.32313584      -0.58112975      -3.74934489      -1.23641473
O       -2.25498463       1.07448049       0.29361533       5.56681262       0.00639366       0.23174546       0.41707803       7.67174886       2.25093872
C        1.72268530       0.31850999       0.27189930      -5.65370070       0.16709423      -0.13705955      -0.93536068      -2.28856532      -1.53465339
C        0.63604078      -0.41916361      -0.20526653      -6.65067701      -1.34894459       0.20491727       2.67646047       1.52320041       0.11226271
H        1.49314168       1.23385315       0.85823508      -0.71443047       0.30197197       0.07206222       1.18893813      -0.40118918       0.02163459
H        2.74739917      -0.10084960       0.06099218      -0.81175678       0.09106857       0.19400007      -0.94097474       1.52892808       0.97588576
H       -0.28772105       0.11813650       0.03732495      -0.62076290       0.40360439       0.04915803      -0.34630828      -0.25048393      -0.04128985
H        0.84422380      -1.09109905      -1.06076679      -0.44469366       0.12402654      -0.48396837      -0.62035063      -0.18798540       0.49795738
9
Lattice="13.0 0.0 0.0 0.0 9.0 0.0 0.0 0.0 9.0" Properties=species:S:1:pos:R:3:momenta:R:3:forces:R:3 EPS_SCF=1e-06 energy=-1401.15646344937 units=gap_units Integrated_spin_density=6.55109e-05 opt_dir=/home/tks32/dft_pbe/apr_8_opt_fragments_subset/singlepoint_1_CO2 time=6.0 free_energy=-1401.15646344937 pbc="T T T"
C       -2.33559191      -0.01385370       0.00076589       3.44040887      -0.73444560      -0.48257399      -1.08994558      -2.02998433      -0.53927024
O       -2.45778223      -1.12686226      -0.24659785       5.56433060       0.23507098       0.19688949      -0.58295557      -4.52071845      -1.45151581
O       -2.19534866       1.07498133       0.29650299       5.50466521       0.75119573       0.39936073      -0.36758255       6.83543406       1.98809730
C        1.69785711       0.31365314       0.27014029      -5.66227291       0.11548816      -0.25044162      -2.29327118      -1.69526041      -1.09123715
C        0.60608212      -0.43817645      -0.20175191      -6.33658310      -1.21289169       0.17536752       2.55437441       2.16332940      -0.02746076
H        1.46045337       1.24493252       0.84732476      -0.58998536       0.19816171       0.05981090       1.45894146      -0.98926402      -0.37595699
H        2.71141184      -0.10545807       0.08696557      -0.82991461       0.16353986       0.27484889       0.24074476       1.05676726       0.71432274
H       -0.30705518       0.13938472       0.03476313      -0.60736388       0.38767575       0.02541723       0.79495426      -0.97728598      -0.29820946
H        0.81997353      -1.08860124      -1.08811286      -0.48328484       0.09620511      -0.39867914      -0.71526001       0.15698246       1.08123039
9
Lattice="13.0 0.0 0.0 0.0 9.0 0.0 0.0 0.0 9.0" Properties=species:S:1:pos:R:3:momenta:R:3:forces:R:3 EPS_SCF=1e-06 energy=-1400.867336050454 units=gap_units Integrated_spin_density=6.55109e-05 opt_dir=/home/tks32/dft_pbe/apr_8_opt_fragments_subset/singlepoint_1_CO2 time=7.0 free_energy=-1400.867336050454 pbc="T T T"
C       -2.28561870      -0.01889398       0.00154572       3.31876121      -0.75616810      -0.48184389      -1.42852142       0.54707180       0.21831118
O       -2.40466067      -1.13073653      -0.24136611       5.44871454      -0.34101692       0.07570663      -0.65642250      -5.29004395      -1.67432059
O       -2.13831413       1.07806024       0.30081386       5.23543133       1.43623026       0.52406595      -0.99505371       5.11116173       1.44994267
C        1.67147086       0.30870445       0.26635499      -5.92735477       0.02980733      -0.46025183      -3.29929900      -1.00100449      -0.64975654
C        0.57730461      -0.45429202      -0.19899491      -5.88132034      -1.06564047       0.23448295       2.21999424       2.72147129      -0.15211192
H        1.43678340       1.25210867       0.83532282      -0.40545984       0.05834586      -0.02811580       1.51379619      -1.21482962      -0.53646546
H        2.67796107      -0.10224440       0.11556521      -0.71680339       0.22959880       0.36886235       1.61980708       0.41929860       0.40156713
H       -0.32333391       0.15465912       0.03138067      -0.49856818       0.27096309       0.05107255       1.81601061      -1.62472498      -0.53697017
H        0.78840747      -1.08736555      -1.11062223      -0.57340058       0.13788016      -0.28397891      -0.79031149       0.33159963       1.47980370
9
Lattice="13.0 0.0 0.0 0.0 9.0 0.0 0.0 0.0 9.0" Properties=species:S:1:pos:R:3:momenta:R:3:forces:R:3 EPS_SCF=1e-06 energy=-1400.639324466111 units=gap_units Integrated_spin_density=6.55109e-05 opt_dir=/home/tks32/dft_pbe/apr_8_opt_fragments_subset/singlepoint_1_CO2 time=8.0 free_energy=-1400.639324466111 pbc="T T T"
C       -2.23896919      -0.02365518       0.00180867       3.22826183      -0.59332327      -0.40465234      -1.43961527       2.52564709       0.84108578
O       -2.35371868      -1.13733148      -0.23917160       5.08278534      -0.98661558      -0.23300479      -0.58609086      -5.46601848      -1.77024296
O       -2.08497458       1.08357646       0.30552852       5.05965592       1.90414592       0.59438627      -1.23343241       3.31170274       0.90250707
C        1.64254049       0.30413916       0.26112463      -6.07019905      -0.02107170      -0.38694009      -3.86014928      -0.54134813      -0.41059936
C        0.54911233      -0.46674980      -0.19716947      -5.54384187      -0.67542722       0.35178385       1.79881541       3.01879036      -0.24712081
H        1.42186157       1.25447461       0.82213430      -0.30175724      -0.04702969      -0.12739481       1.30712677      -1.12739350      -0.49427111
H        2.65000897      -0.09260850       0.14595938      -0.49682688       0.21368588       0.39240305       2.56961014      -0.07475586       0.20415329
H       -0.33466034       0.16308906       0.02706199      -0.30949203       0.07557733      -0.01149357       2.30386394      -1.93748549      -0.64794870
H        0.74879944      -1.08493433      -1.12727643      -0.64858602       0.13005832      -0.17508758      -0.86012845       0.29086129       1.62243679
9
Lattice="13.0 0.0 0.0 0.0 9.0 0.0 0.0 0.0 9.0" Properties=species:S:1:pos:R:3:momenta:R:3:forces:R:3 EPS_SCF=1e-06 energy=-1400.6250913575545 units=gap_units Integrated_spin_density=6.55109e-05 opt_dir=/home/tks32/dft_pbe/apr_8_opt_fragments_subset/singlepoint_1_CO2 time=9.0 free_energy=-1400.6250913575545 pbc="T T T"
C       -2.19590330      -0.02811425       0.00152300       3.06975181      -0.30403506      -0.26108553      -1.29813531       3.55243680       1.19457078
O       -2.30515028      -1.14648416      -0.23963417       4.98249448      -1.76019119      -0.44100331      -0.52097167      -4.79043779      -1.62815762
O       -2.03553135       1.09116083       0.31042469       4.87892625       2.32631705       0.67482920      -1.24147702       1.50886175       0.36954316
C        1.61087567       0.30011896       0.25481821      -6.46593474      -0.04661370      -0.41864334      -3.08272693      -0.64373871      -0.47202264
C        0.52117197      -0.47550704      -0.19678760      -5.34219030      -0.29950881       0.37687047       1.50525315       2.82644372      -0.47201893
H        1.41449689       1.25261161       0.80803612      -0.11455013      -0.14364664      -0.18300013       0.98064889      -0.64792682      -0.19608711
H        2.62916498      -0.07812327       0.17741143      -0.21132510       0.20066185       0.38799879       2.39927739      -0.15778474       0.17486781
H       -0.34070265       0.16463597       0.02189197      -0.07446841      -0.09658480      -0.09265693       2.08013766      -1.77767422      -0.55233733
H        0.70157805      -1.08029864      -1.13768365      -0.72270385       0.12360131      -0.04330921      -0.82200617       0.12982002       1.58164187
9
Lattice="13.0 0.0 0.0 0.0 9.0 0.0 0.0 0.0 9.0" Properties=species:S:1:pos:R:3:momenta:R:3:forces:R:3 EPS_SCF=1e-06 energy=-1400.7216206303171 units=gap_units Integrated_spin_density=6.55109e-05 opt_dir=/home/tks32/dft_pbe/apr_8_opt_fragments_subset/singlepoint_1_CO2 time=10.0 free_energy=-1400.7216206303171 pbc="T T T"
C       -2.15590499      -0.03146735       0.00107643       2.77249412       0.08529656       0.01220406      -0.98787227       3.43190718       1.20852635
O       -2.25867043      -1.15792129      -0.24313963       4.91895693      -2.08326526      -0.62353781      -0.50427661      -3.23915150      -1.21825111
O       -1.98960611       1.09962723       0.31580856       4.72341975       2.39874287       0.71189124      -1.18549815      -0.06157694      -0.06728080
C        1.57723665       0.29643220       0.24756568      -6.44971211      -0.17985719      -0.55472098      -1.06884273      -0.98797890      -0.55546743
C        0.49371089      -0.48107332      -0.19835082      -5.18922382      -0.13882339       0.30907071       1.58108927       1.97251922      -0.83369504
H        1.41295598       1.24843978       0.79357147      -0.04554149      -0.14498976      -0.21003843       0.51386699       0.07231073       0.23452820
H        2.61514062      -0.06050091       0.20915757      -0.05998499       0.19811584       0.40091311       1.30078818      -0.04209660       0.13033209
H       -0.34300505       0.16073674       0.01658271       0.09223828      -0.22963216      -0.17298619       0.97521492      -0.99389098      -0.19918773
H        0.64814243      -1.07427309      -1.14227197      -0.76264668       0.09441248       0.12720430      -0.62446960      -0.15204220       1.30049546
9
Lattice="13.0 0.0 0.0 0.0 9.0 0.0 0.0 0.0 9.0" Properties=species:S:1:pos:R:3:momenta:R:3:forces:R:3 EPS_SCF=1e-06 energy=-1400.648867499531 units=gap_units Integrated_spin_density=6.55109e-05 opt_dir=/home/tks32/dft_pbe/apr_8_opt_fragments_subset/singlepoint_1_CO2 time=11.0 free_energy=-1400.648867499531 pbc="T T T"
C       -2.11796202      -0.03349607       0.00081105       2.67786392       0.49622935       0.19500904      -0.60855649       2.60517721       0.99349122
O       -2.21358967      -1.17079761      -0.25009012       4.76155305      -2.21915229      -0.73332752      -0.67163391      -1.30434065      -0.63479052
O       -1.94628993       1.10755017       0.32210671       4.52591010       2.32734662       0.62723390      -1.20151925      -1.30250872      -0.39233011
C        1.54315472       0.29258902       0.23945926      -6.29746293      -0.38847210      -0.68459734       1.37439138      -1.16495088      -0.46164911
C        0.46743758      -0.48431446      -0.20212634      -4.93350669      -0.10877690       0.19944620       2.09340283       0.69615826      -1.03863391
H        1.41527596       1.24457514       0.77952706       0.00414912      -0.11202731      -0.20037753      -0.01572037       0.83929560       0.65983071
H        2.60582216      -0.04162182       0.24036529      -0.02411389       0.18854668       0.45952936      -0.05118913      -0.04125038      -0.05496729
H       -0.34454177       0.15441559       0.01241213       0.08702851      -0.24931070      -0.12126952      -0.67633729       0.25283120       0.29655147
H        0.59069298      -1.06889997      -1.14246503      -0.80142119       0.06561665       0.25835341      -0.24283777      -0.58041166       0.63249755
9
Lattice="13.0 0.0 0.0 0.0 9.0 0.0 0.0 0.0 9.0" Properties=species:S:1:pos:R:3:momenta:R:3:forces:R:3 EPS_SCF=1e-06 energy=-1400.3100989134578 units=gap_units Integrated_spin_density=6.55109e-05 opt_dir=/home/tks32/dft_pbe/apr_8_opt_fragments_subset/singlepoint_1_CO2 time=12.0 free_energy=-1400.3100989134578 pbc="T T T"
C       -2.08102906      -0.03510610       0.00056896       2.51832310       0.60992488       0.30888681      -0.32477574       1.29323520       0.62603182
O       -2.16889649      -1.18421083      -0.26015282       4.65085399      -2.17277446      -0.76552315      -0.99067740       0.72476227       0.00186617
O       -1.90421331       1.11417192       0.32957068       4.41013784       2.01725688       0.57435176      -1.23426886      -2.18883902      -0.64217909
C        1.51046663       0.28809422       0.23079961      -6.03422762      -0.49081728      -0.64157096       3.50475595      -0.94417797      -0.14848501
C        0.44320239      -0.48605894      -0.20810149      -4.57443601       0.00010206      -0.04631578       2.94729435      -0.69275983      -1.08054381
H        1.41943768       1.24338728       0.76680718      -0.01230066       0.02976181      -0.15232129      -0.48427105       1.39317189       0.90629683
H        2.59786076      -0.02360774       0.27019655      -0.09167132       0.23740563       0.45603658      -1.11319951      -0.24467530      -0.34560615
H       -0.34869286       0.14977688       0.01090586      -0.04004034      -0.19213205      -0.02005789      -2.39502318       1.60246443       0.79968770
H        0.53186425      -1.06644669      -1.14059453      -0.82663899      -0.03872747       0.28651393       0.09016544      -0.94318168      -0.11706847
9
Lattice="13.0 0.0 0.0 0.0 9.0 0.0 0.0 0.0 9.0" Properties=species:S:1:pos:R:3:momenta:R:3:forces:R:3 EPS_SCF=1e-06 energy=-1399.8824617679163 units=gap_units Integrated_spin_density=6.55109e-05 opt_dir=/home/tks32/dft_pbe/apr_8_opt_fragments_subset/singlepoint_1_CO2 time=13.0 free_energy=-1399.8824617679163 pbc="T T T"
C       -2.04407875      -0.03662000       0.00044111       2.57554180       0.67089430       0.33567057      -0.23150739       0.04387999       0.25987815
O       -2.12374825      -1.19726164      -0.27293287       4.66885300      -1.88584623      -0.69046388      -1.37418876       2.46043914       0.60823471
O       -1.86230650       1.11859424       0.33815046       4.26124193       1.77504606       0.40725000      -1.42381289      -2.81948021      -0.87420340
C        1.48085351       0.28288748       0.22208191      -5.66164194      -0.68540412      -0.59416699       4.88639844      -0.22342221       0.40426071
C        0.42177242      -0.48707444      -0.21587117      -4.41213434      -0.17962034      -0.11782587       3.38041363      -1.36051773      -0.82219628
H        1.42327794       1.24647734       0.75593266      -0.06712355       0.17083524      -0.09689551      -0.79285149       1.28829936       0.73269174
H        2.58765844      -0.00834020       0.29771135      -0.25058305       0.21673186       0.42771742      -1.64617569      -0.54849298      -0.60953631
H       -0.35783820       0.15019950       0.01346641      -0.32857050       0.02381343       0.08082805      -3.15844159       2.33007864       1.11989514
H        0.47440939      -1.06886229      -1.13897985      -0.78558334      -0.10645019       0.24788620       0.36016573      -1.17078401      -0.81902447
9
Lattice="13.0 0.0 0.0 0.0 9.0 0.0 0.0 0.0 9.0" Properties=species:S:1:pos:R:3:momenta:R:3:forces:R:3 EPS_SCF=1e-06 energy=-1399.55797141888 units=gap_units Integrated_spin_density=6.55109e-05 opt_dir=/home/tks32/dft_pbe/apr_8_opt_fragments_subset/singlepoint_1_CO2 time=14.0 free_energy=-1399.55797141888 pbc="T T T"
C       -2.00652347      -0.03832384       0.00045904       2.52540875       0.49784107       0.27580598      -0.43423100      -1.06174560      -0.08487324
O       -2.07774892      -1.20900677      -0.28771392       4.54559392      -1.45844247      -0.54191610      -1.70974341       3.76858819       1.11101474
O       -1.81994446       1.12031946       0.34755858       4.17541954       1.38391961       0.18087050      -1.66753395      -3.07773230      -0.96470224
C        1.45545801       0.27747875       0.21397496      -5.17939447      -0.56280343      -0.51239329       5.40650636       0.64466642       0.96763476
C        0.40354641      -0.48772630      -0.22479830      -4.20225524      -0.25621358      -0.03904829       2.49516100      -0.62520590      -0.22986805
H        1.42458115       1.25413820       0.74686756      -0.15351297       0.29350201      -0.06792670      -0.98243852       0.70203579       0.29645626
H        2.57224425       0.00266078       0.32201530      -0.39449644       0.10249990       0.35916078      -1.74081591      -0.79718982      -0.75648685
H       -0.37229980       0.15744191       0.02092979      -0.57925690       0.25805040       0.19036906      -1.98033660       1.74118842       0.91891123
H        0.42068684      -1.07698218      -1.13929301      -0.73750621      -0.25835351       0.15507806       0.61343202      -1.29460519      -1.25808661
9
Lattice="13.0 0.0 0.0 0.0 9.0 0.0 0.0 0.0 9.0" Properties=species:S:1:pos:R:3:momenta:R:3:forces:R:3 EPS_SCF=1e-06 energy=-1399.274398445914 units=gap_units Integrated_spin_density=6.55109e-05 opt_dir=/home/tks32/dft_pbe/apr_8_opt_fragments_subset/singlepoint_1_CO2 time=15.0 free_energy=-1399.274398445914 pbc="T T T"
C       -1.96844565      -0.04064124       0.00049666       2.33654373       0.26232335       0.26478954      -0.74061271      -1.83347179      -0.34819464
O       -2.03106717      -1.21840285      -0.30345388       4.37224069      -1.20824535      -0.51552897      -1.92409163       4.60654356       1.45927921
O       -1.77703156       1.11941918       0.35739812       3.98169156       0.97857440       0.26384214      -1.76323060      -3.21843622      -1.03760500
C        1.43467166       0.27283118       0.20716357      -4.62233648      -0.34141760      -0.36976342       5.33369651       1.40612797       1.43204806
C        0.38841794      -0.48790458      -0.23425557      -3.89431749      -0.19636519      -0.11834027       1.27678309       0.40329378       0.01944100
H        1.42114942       1.26528368       0.73903400      -0.28084633       0.34124138      -0.06065118      -1.09697840      -0.05173907      -0.20397210
H        2.54995857       0.00837279       0.34236711      -0.53069754       0.07464971       0.27919389      -1.53990088      -0.95043530      -0.81126884
H       -0.38997978       0.17113677       0.03324344      -0.68416416       0.40985338       0.27520441      -0.23764993       0.61563854       0.48210983
H        0.37232656      -1.09009492      -1.14199343      -0.67811398      -0.32061408      -0.01874615       0.69198455      -0.97752146      -0.99183751
9
Lattice="13.0 0.0 0.0 0.0 9.0 0.0 0.0 0.0 9.0" Properties=species:S:1:pos:R:3:momenta:R:3:forces:R:3 EPS_SCF=1e-06 energy=-1398.9386651185716 units=gap_units Integrated_spin_density=6.55109e-05 opt_dir=/home/tks32/dft_pbe/apr_8_opt_fragments_subset/singlepoint_1_CO2 time=16.0 free_energy=-1398.9386651185716 pbc="T T T"
C       -1.93049054      -0.04346395       0.00053050       2.14031903       0.10054846       0.18258548      -1.03207666      -2.29549385      -0.51206666
O       -1.98434328      -1.22488934      -0.31911446       4.38604957      -0.73540309      -0.41978065      -2.06219242       5.06167586       1.67218627
O       -1.73404041       1.11636058       0.36725906       3.71889554       0.54330639       0.00668711      -1.67073396      -3.24999108      -1.06748427
C        1.41808154       0.27008934       0.20217369      -4.07575824      -0.23454822      -0.03450130       4.68073651       1.92198097       1.67918669
C        0.37577308      -0.48716618      -0.24379269      -3.90121496       0.04477658      -0.07685659       0.54979301       1.02443268      -0.18479612
H        1.41095268       1.27772124       0.73141943      -0.36925978       0.32533951      -0.08097848      -1.13664827      -0.71056871      -0.61184002
H        2.52083659       0.00829793       0.35826783      -0.64791315       0.00467797       0.22051128      -1.19232669      -1.03642983      -0.79047818
H       -0.40693269       0.18903590       0.04939844      -0.61265539       0.35930531       0.26276303       1.13077419      -0.43320481       0.01264887
H        0.33016303      -1.10598551      -1.14614180      -0.63846261      -0.40800292      -0.06042989       0.73267430      -0.28240122      -0.19735658
9
Lattice="13.0 0.0 0.0 0.0 9.0 0.0 0.0 0.0 9.0" Properties=species:S:1:pos:R:3:momenta:R:3:forces:R:3 EPS_SCF=1e-06 energy=-1398.574460454305 units=gap_units Integrated_spin_density=6.55109e-05 opt_dir=/home/tks32/dft_pbe/apr_8_opt_fragments_subset/singlepoint_1_CO2 time=17.0 free_energy=-1398.574460454305 pbc="T T T"
C       -1.89392522      -0.04702622       0.00045768       2.03484495      -0.03657817       0.16492042      -1.38912915      -2.49746993      -0.59266438
O       -1.93845270      -1.22799439      -0.33373779       3.88663864      -0.24678017      -0.40301662      -2.17582117       5.15786079       1.75856099