9
Lattice="13.0 0.0 0.0 0.0 9.0 0.0 0.0 0.0 9.0" Properties=species:S:1:pos:R:3:momenta:R:3:forces:R:3 EPS_SCF=1e-06 energy=-1401.8498565404752 units=gap_units Integrated_spin_density=6.55109e-05 opt_dir=/home/tks32/dft_pbe/apr_8_opt_fragments_subset/singlepoint_1_CO2 time=0.0 free_energy=-1401.8498565404752 pbc="T T T"
C       -2.66661630       0.00003508      -0.00008450       5.45409721       0.81308744      -0.21939016      -0.71616738       0.08149990       0.07809224
O       -2.79916745      -1.12388035      -0.32607284       6.91856637       1.60105312       0.69227000      -0.00977911       0.19278933       0.11863095
O       -2.53420761       1.12385113       0.32614266       6.44529771      -2.41414056      -0.47287984       0.60777930      -0.29930868      -0.09183242
C        1.85829380       0.32653053       0.25008286      -5.69597901       0.88593916       0.41407752       0.57584133       0.68705914       0.43457040
C        0.80837003      -0.32653266      -0.25007829      -6.07650281      -1.32504139       0.17494715      -0.90079645      -1.10620546      -0.51939980
H        1.73876223       1.17877639       0.91904262      -0.67682574      -0.05175688      -0.30347750      -0.24543084       0.30760741       0.29124826
H        2.88157783       0.03641793       0.01166621      -0.20088037      -0.43346916      -0.14053191       0.55674304       0.06718708      -0.00289936
H       -0.21491357      -0.03641919      -0.01166099      -0.11295227       0.37406457       0.09108301       0.27576887       0.09625598      -0.16517844
H        0.92790105      -1.17877889      -0.91903774      -0.29107960       0.55026370      -0.23609827      -0.14395874      -0.02688471      -0.14323184
9
Lattice="13.0 0.0 0.0 0.0 9.0 0.0 0.0 0.0 9.0" Properties=species:S:1:pos:R:3:momenta:R:3:forces:R:3 EPS_SCF=1e-06 energy=-1401.8070900491755 units=gap_units Integrated_spin_density=6.55109e-05 opt_dir=/home/tks32/dft_pbe/apr_8_opt_fragments_subset/singlepoint_1_CO2 time=1.0 free_energy=-1401.8070900491755 pbc="T T T"
C       -2.62370948      -0.00023969       0.00076754       4.33379230       0.85202192      -0.22813873      -0.81150355      -1.42441597      -0.30617401
O       -2.76027882      -1.12277005      -0.30288986       5.68534428       1.50966954       0.73141744       0.19302939      -0.43047360      -0.13568442
O       -2.49006724       1.11643320       0.31051542       5.35278514      -2.29325472      -0.34703573       1.03688060       1.78035087       0.48871193
C        1.83600667       0.32029781       0.25489314      -6.49319712       0.97275051       0.38506449       1.63794139      -0.77819499      -0.70970603
C        0.76600948      -0.36358403      -0.24520570      -7.19264930      -1.48450644       0.09409432      -0.56899382      -0.25673259      -0.01772384
H        1.71292488       1.18231965       0.91370835      -0.79598878       0.03390291      -0.28193947      -0.06592477       0.98773189       0.86949274
H        2.86091746       0.03339613       0.02594876      -0.31185103      -0.41557069      -0.08813917      -0.65869152       0.71712952       0.49794926
H       -0.21812514      -0.01619159      -0.01281322      -0.24178677       0.34712648       0.04521078      -0.55752186       0.19174938      -0.04621524
H        0.91632221      -1.14966143      -0.94492443      -0.33644872       0.47786049      -0.31053392      -0.20521585      -0.78714452      -0.64065039
9
Lattice="13.0 0.0 0.0 0.0 9.0 0.0 0.0 0.0 9.0" Properties=species:S:1:pos:R:3:momenta:R:3:forces:R:3 EPS_SCF=1e-06 energy=-1401.6746215812348 units=gap_units Integrated_spin_density=6.55109e-05 opt_dir=/home/tks32/dft_pbe/apr_8_opt_fragments_subset/singlepoint_1_CO2 time=2.0 free_energy=-1401.6746215812348 pbc="T T T"
C       -2.58469865      -0.00766601       0.00351754       4.18961870       0.58808281      -0.21318432      -0.79890505      -2.84338816      -0.68243680
O       -2.72142955      -1.12822786      -0.29401591       5.83658565       1.45276544       0.57954698       0.20674923      -1.14170949      -0.40303280
O       -2.45207209       1.10680194       0.31165317       5.41636925      -1.94633903      -0.19699841       1.26652863       3.89976846       1.10538090
C        1.81756883       0.31392697       0.25388880      -6.24674736       0.78628328       0.40527052       2.06040657      -1.91621692      -1.48368732
C        0.74430060      -0.37079203      -0.25649606      -7.31324149      -1.43031665      -0.05102324       0.01704591       0.38986945       0.41079465
H        1.69110237       1.18984772       0.90240716      -0.85381452       0.13773793      -0.15637603       0.06415122       1.25600432       1.09991196
H        2.83900050       0.01698727       0.05471735      -0.38501136      -0.32317112      -0.01488909      -1.43157696       1.24656717       0.84923773
H       -0.21914584       0.01815869      -0.01992175      -0.28824680       0.35728396       0.04430368      -1.18585879       0.31792362       0.06089582
H        0.88537382      -1.13903669      -0.95575029      -0.35551208       0.37767338      -0.39665010      -0.19854076      -1.20881845      -0.95706415
9
Lattice="13.0 0.0 0.0 0.0 9.0 0.0 0.0 0.0 9.0" Properties=species:S:1:pos:R:3:momenta:R:3:forces:R:3 EPS_SCF=1e-06 energy=-1401.5505682422906 units=gap_units Integrated_spin_density=6.55109e-05 opt_dir=/home/tks32/dft_pbe/apr_8_opt_fragments_subset/singlepoint_1_CO2 time=3.0 free_energy=-1401.5505682422906 pbc="T T T"
C       -2.53885152      -0.01473632       0.00096172       4.07138753       0.41386169      -0.24725092      -0.72950985      -3.96429592      -1.00782828
O       -2.66227773      -1.13916324      -0.30175850       5.81442161       1.19913423       0.56414338      -0.20010234      -2.03571284      -0.69468309
O       -2.42077352       1.09098131       0.32177032       5.46339130      -1.55894459      -0.17210227       1.21590921       5.90540747       1.70951904
C        1.79407249       0.30801192       0.24972834      -5.92234737       0.68982411       0.20405339       1.60892804      -2.52755940      -1.84248447
C        0.72074302      -0.36390834      -0.25586025      -7.30574219      -1.44656198       0.13345850       1.30949159       0.71403671       0.47981591
H        1.67726149       1.20068956       0.88071986      -0.84230628       0.21153957      -0.06415624       0.30427320       1.00629956       0.94965096
H        2.81476233      -0.01467822       0.07850997      -0.51883287      -0.21330493       0.04821430      -1.73761583       1.57895576       1.04365547
H       -0.22625387       0.06876550      -0.01163727      -0.40903545       0.41494358       0.02540587      -1.49353444       0.40290776       0.14159045
H        0.84131730      -1.13596218      -0.96243418      -0.35093626       0.28950832      -0.49176601      -0.27783958      -1.08003911      -0.77923599
9
Lattice="13.0 0.0 0.0 0.0 9.0 0.0 0.0 0.0 9.0" Properties=species:S:1:pos:R:3:momenta:R:3:forces:R:3 EPS_SCF=1e-06 energy=-1401.4474623351223 units=gap_units Integrated_spin_density=6.55109e-05 opt_dir=/home/tks32/dft_pbe/apr_8_opt_fragments_subset/singlepoint_1_CO2 time=4.0 free_energy=-1401.4474623351223 pbc="T T T"
C       -2.49396761      -0.02253319      -0.00093603       3.83401644       0.10215286      -0.30272091      -0.75647870      -4.47581160      -1.19155721
O       -2.60279832      -1.15026378      -0.30890486       5.85595134       1.02640977       0.45889368      -0.47036453      -2.92120069      -0.97914372
O       -2.38923539       1.07585611       0.33286388       5.57674072      -0.91675655       0.05513117       0.95230845       7.34604293       2.15065098
C        1.77076071       0.30178288       0.24595587      -5.80104505       0.35788733      -0.01122505       0.43910267      -2.65851440      -1.84838987
C        0.69740788      -0.35773644      -0.25527082      -7.08094126      -1.40037582       0.12574407       2.29954060       1.04792506       0.33780985
H        1.66314206       1.21170667       0.85819321      -0.79038513       0.29900812       0.01256534       0.74239993       0.38161103       0.53951527
H        2.79023822      -0.04655425       0.10431701      -0.68298578      -0.06848502       0.13455189      -1.59750662       1.69495291       1.08629721
H       -0.23310633       0.12038204      -0.00665382      -0.54448456       0.42301594       0.03037325      -1.16525455       0.24058734       0.11549849
H        0.79755877      -1.13264003      -0.96956444      -0.36686672       0.17714336      -0.50331344      -0.44374724      -0.65559258      -0.21068101
9
Lattice="13.0 0.0 0.0 0.0 9.0 0.0 0.0 0.0 9.0" Properties=species:S:1:pos:R:3:momenta:R:3:forces:R:3 EPS_SCF=1e-06 energy=-1401.3418572975572 units=gap_units Integrated_spin_density=6.55109e-05 opt_dir=/home/tks32/dft_pbe/apr_8_opt_fragments_subset/singlepoint_1_CO2 time=5.0 free_energy=-1401.3418572975572 pbc="T T T"
C       -2.45005461      -0.03060581      -0.00170383       3.65034013      -0.26394012      -0.45399097      -0.85835256      -3.84630863      -1.04632120
O       -2.54332006      -1.16235976      -0.31278812       5.67886877       0.51872535       0.32313584      -0.58112975      -3.74934489      -1.23641473
O       -2.35726599       1.06196889       0.34332546       5.56681262       0.00639366       0.23174546       0.41707803       7.67174886       2.25093872
C        1.74758686       0.29501687       0.24323047      -5.65370070       0.16709423      -0.13705955      -0.93536068      -2.28856532      -1.53465339
C        0.67410002      -0.35272210      -0.25512566      -6.65067701      -1.34894459       0.20491727       2.67646047       1.52320041       0.11226271
H        1.64829285       1.22219436       0.83591200      -0.71443047       0.30197197       0.07206222       1.18893813      -0.40118918       0.02163459
H        2.76536950      -0.07852854       0.13282297      -0.81175678       0.09106857       0.19400007      -0.94097474       1.52892808       0.97588576
H       -0.23964371       0.17298977      -0.00690623      -0.62076290       0.40360439       0.04915803      -0.34630828      -0.25048393      -0.04128985
H        0.75493514      -1.12795369      -0.97876706      -0.44469366       0.12402654      -0.48396837      -0.62035063      -0.18798540       0.49795738
9
Lattice="13.0 0.0 0.0 0.0 9.0 0.0 0.0 0.0 9.0" Properties=species:S:1:pos:R:3:momenta:R:3:forces:R:3 EPS_SCF=1e-06 energy=-1401.15646344937 units=gap_units Integrated_spin_density=6.55109e-05 opt_dir=/home/tks32/dft_pbe/apr_8_opt_fragments_subset/singlepoint_1_CO2 time=6.0 free_energy=-1401.15646344937 pbc="T T T"
C       -2.40294799      -0.03893751      -0.00389874       3.44040887      -0.73444560      -0.48257399      -1.08994558      -2.02998433      -0.53927024
O       -2.48132262      -1.17654512      -0.33724190       5.56433060       0.23507098       0.19688949      -0.58295557      -4.52071845      -1.45151581
O       -2.31906258       1.05438052       0.37520244       5.50466521       0.75119573       0.39936073      -0.36758255       6.83543406       1.98809730
C        1.72080726       0.29492590       0.23475577      -5.66227291       0.11548816      -0.25044162      -2.29327118      -1.69526041      -1.09123715
C        0.66938291      -0.32044824      -0.26269794      -6.33658310      -1.21289169       0.17536752       2.55437441       2.16332940      -0.02746076
H        1.62899062       1.23710698       0.80713317      -0.58998536       0.19816171       0.05981090       1.45894146      -0.98926402      -0.37595699
H        2.73838840      -0.11115032       0.16691138      -0.82991461       0.16353986       0.27484889       0.24074476       1.05676726       0.71432274
H       -0.25240028       0.21131900      -0.00344127      -0.60736388       0.38767575       0.02541723       0.79495426      -0.97728598      -0.29820946
H        0.69816428      -1.15065121      -0.97672292      -0.48328484       0.09620511      -0.39867914      -0.71526001       0.15698246       1.08123039
9
Lattice="13.0 0.0 0.0 0.0 9.0 0.0 0.0 0.0 9.0" Properties=species:S:1:pos:R:3:momenta:R:3:forces:R:3 EPS_SCF=1e-06 energy=-1400.867336050454 units=gap_units Integrated_spin_density=6.55109e-05 opt_dir=/home/tks32/dft_pbe/apr_8_opt_fragments_subset/singlepoint_1_CO2 time=7.0 free_energy=-1400.867336050454 pbc="T T T"
C       -2.35346183      -0.04070553      -0.00610934       3.31876121      -0.75616810      -0.48184389      -1.42852142       0.54707180       0.21831118
O       -2.42004064      -1.18585445      -0.34097544       5.44871454      -0.34101692       0.07570663      -0.65642250      -5.29004395      -1.67432059
O       -2.27332986       1.05183402       0.38806350       5.23543133       1.43623026       0.52406595      -0.99505371       5.11116173       1.44994267
C        1.69016990       0.29431048       0.23402070      -5.92735477       0.02980733      -0.46025183      -3.29929900      -1.00100449      -0.64975654
C        0.64319082      -0.32006587      -0.25530370      -5.88132034      -1.06564047       0.23448295       2.21999424       2.72147129      -0.15211192
H        1.60424875       1.24664413       0.78572161      -0.40545984       0.05834586      -0.02811580       1.51379619      -1.21482962      -0.53646546
H        2.71210553      -0.13018848       0.19017131      -0.71680339       0.22959880       0.36886235       1.61980708       0.41929860       0.40156713
H       -0.26705707       0.23602737      -0.00198244      -0.49856818       0.27096309       0.05107255       1.81601061      -1.62472498      -0.53697017
H        0.66417440      -1.15200166      -0.99360620      -0.57340058       0.13788016      -0.28397891      -0.79031149       0.33159963       1.47980370
9
Lattice="13.0 0.0 0.0 0.0 9.0 0.0 0.0 0.0 9.0" Properties=species:S:1:pos:R:3:momenta:R:3:forces:R:3 EPS_SCF=1e-06 energy=-1400.639324466111 units=gap_units Integrated_spin_density=6.55109e-05 opt_dir=/home/tks32/dft_pbe/apr_8_opt_fragments_subset/singlepoint_1_CO2 time=8.0 free_energy=-1400.639324466111 pbc="T T T"
C       -2.31295241      -0.04385924      -0.00129930       3.22826183      -0.59332327      -0.40465234      -1.43961527       2.52564709       0.84108578
O       -2.38025788      -1.19039615      -0.32404040       5.08278534      -0.98661558      -0.23300479      -0.58609086      -5.46601848      -1.77024296
O       -2.21903943       1.05817223       0.39141345       5.05965592       1.90414592       0.59438627      -1.23343241       3.31170274       0.90250707
C        1.66468612       0.29288601       0.23793350      -6.07019905      -0.02107170      -0.38694009      -3.86014928      -0.54134813      -0.41059936
C        0.61820514      -0.33599329      -0.26084850      -5.54384187      -0.67542722       0.35178385       1.79881541       3.01879036      -0.24712081
H        1.57018214       1.25196203       0.77498335      -0.30175724      -0.04702969      -0.12739481       1.30712677      -1.12739350      -0.49427111
H        2.68763214      -0.13325245       0.22161536      -0.49682688       0.21368588       0.39240305       2.56961014      -0.07475586       0.20415329
H       -0.27542813       0.24438218      -0.02289332      -0.30949203       0.07557733      -0.01149357       2.30386394      -1.93748549      -0.64794870
H        0.64697231      -1.14390132      -1.01686413      -0.64858602       0.13005832      -0.17508758      -0.86012845       0.29086129       1.62243679
9
Lattice="13.0 0.0 0.0 0.0 9.0 0.0 0.0 0.0 9.0" Properties=species:S:1:pos:R:3:momenta:R:3:forces:R:3 EPS_SCF=1e-06 energy=-1400.6250913575545 units=gap_units Integrated_spin_density=6.55109e-05 opt_dir=/home/tks32/dft_pbe/apr_8_opt_fragments_subset/singlepoint_1_CO2 time=9.0 free_energy=-1400.6250913575545 pbc="T T T"
C       -2.27406340      -0.04700290       0.00436931       3.06975181      -0.30403506      -0.26108553      -1.29813531       3.55243680       1.19457078
O       -2.34258603      -1.19447027      -0.30628400       4.98249448      -1.76019119      -0.44100331      -0.52097167      -4.79043779      -1.62815762
O       -2.16297066       1.06559362       0.39502904       4.87892625       2.32631705       0.67482920      -1.24147702       1.50886175       0.36954316
C        1.63930669       0.29177719       0.24242680      -6.46593474      -0.04661370      -0.41864334      -3.08272693      -0.64373871      -0.47202264
C        0.59303724      -0.35334446      -0.26720692      -5.34219030      -0.29950881       0.37687047       1.50525315       2.82644372      -0.47201893
H        1.53516353       1.25672368       0.76423494      -0.11455013      -0.14364664      -0.18300013       0.98064889      -0.64792682      -0.19608711
H        2.66311265      -0.13474051       0.25370188      -0.21132510       0.20066185       0.38799879       2.39927739      -0.15778474       0.17486781
H       -0.28390552       0.25091177      -0.04622561      -0.07446841      -0.09658480      -0.09265693       2.08013766      -1.77767422      -0.55233733
H        0.63290551      -1.13544812      -1.04004543      -0.72270385       0.12360131      -0.04330921      -0.82200617       0.12982002       1.58164187
9
Lattice="13.0 0.0 0.0 0.0 9.0 0.0 0.0 0.0 9.0" Properties=species:S:1:pos:R:3:momenta:R:3:forces:R:3 EPS_SCF=1e-06 energy=-1400.7216206303171 units=gap_units Integrated_spin_density=6.55109e-05 opt_dir=/home/tks32/dft_pbe/apr_8_opt_fragments_subset/singlepoint_1_CO2 time=10.0 free_energy=-1400.7216206303171 pbc="T T T"
C       -2.23698071      -0.04970150       0.01040925       2.77249412       0.08529656       0.01220406      -0.98787227       3.43190718       1.20852635
O       -2.30734517      -1.19665456      -0.29179204       4.91895693      -2.08326526      -0.62353781      -0.50427661      -3.23915150      -1.21825111
O       -2.10544054       1.07239894       0.40137663       4.72341975       2.39874287       0.71189124      -1.18549815      -0.06157694      -0.06728080
C        1.61427063       0.29145098       0.24656276      -6.44971211      -0.17985719      -0.55472098      -1.06884273      -0.98797890      -0.55546743
C        0.56863190      -0.37146117      -0.27405124      -5.18922382      -0.13882339       0.30907071       1.58108927       1.97251922      -0.83369504
H        1.49967910       1.26185148       0.75183895      -0.04554149      -0.14498976      -0.21003843       0.51386699       0.07231073       0.23452820
H        2.63882328      -0.13423297       0.28543132      -0.05998499       0.19811584       0.40091311       1.30078818      -0.04209660       0.13033209
H       -0.29252319       0.25500408      -0.06937846       0.09223828      -0.22963216      -0.17298619       0.97521492      -0.99389098      -0.19918773
H        0.62088470      -1.12865529      -1.06039718      -0.76264668       0.09441248       0.12720430      -0.62446960      -0.15204220       1.30049546
9
Lattice="13.0 0.0 0.0 0.0 9.0 0.0 0.0 0.0 9.0" Properties=species:S:1:pos:R:3:momenta:R:3:forces:R:3 EPS_SCF=1e-06 energy=-1400.648867499531 units=gap_units Integrated_spin_density=6.55109e-05 opt_dir=/home/tks32/dft_pbe/apr_8_opt_fragments_subset/singlepoint_1_CO2 time=11.0 free_energy=-1400.648867499531 pbc="T T T"
C       -2.20140964      -0.04918699       0.00543194       2.67786392       0.49622935       0.19500904      -0.60855649       2.60517721       0.99349122
O       -2.27305533      -1.20027625      -0.27330755       4.76155305      -2.21915229      -0.73332752      -0.67163391      -1.30434065      -0.63479052
O       -2.05234291       1.08231536       0.38203694       4.52591010       2.32734662       0.62723390      -1.20151925      -1.30250872      -0.39233011
C        1.59173782       0.29004040       0.24794079      -6.29746293      -0.38847210      -0.68459734       1.37439138      -1.16495088      -0.46164911
C        0.54821304      -0.38945628      -0.27064604      -4.93350669      -0.10877690       0.19944620       2.09340283       0.69615826      -1.03863391
H        1.46673092       1.25718397       0.75690165       0.00414912      -0.11202731      -0.20037753      -0.01572037       0.83929560       0.65983071
H        2.62026552      -0.12317773       0.28442332      -0.02411389       0.18854668       0.45952936      -0.05118913      -0.04125038      -0.05496729
H       -0.29994649       0.24618407      -0.04802766       0.08702851      -0.24931070      -0.12126952      -0.67633729       0.25283120       0.29655147
H        0.59980706      -1.11362655      -1.08475339      -0.80142119       0.06561665       0.25835341      -0.24283777      -0.58041166       0.63249755
9
Lattice="13.0 0.0 0.0 0.0 9.0 0.0 0.0 0.0 9.0" Properties=species:S:1:pos:R:3:momenta:R:3:forces:R:3 EPS_SCF=1e-06 energy=-1400.3100989134578 units=gap_units Integrated_spin_density=6.55109e-05 opt_dir=/home/tks32/dft_pbe/apr_8_opt_fragments_subset/singlepoint_1_CO2 time=12.0 free_energy=-1400.3100989134578 pbc="T T T"
C       -2.16763913      -0.04827393      -0.00069682       2.51832310       0.60992488       0.30888681      -0.32477574       1.29323520       0.62603182
O       -2.23862498      -1.20290796      -0.26176941       4.65085399      -2.17277446      -0.76552315      -0.99067740       0.72476227       0.00186617
O       -2.00223670       1.08896218       0.36540555       4.41013784       2.01725688       0.57435176      -1.23426886      -2.18883902      -0.64217909
C        1.57051396       0.28863606       0.24768232      -6.03422762      -0.49081728      -0.64157096       3.50475595      -0.94417797      -0.14848501
C        0.53026012      -0.40501006      -0.26628018      -4.57443601       0.00010206      -0.04631578       2.94729435      -0.69275983      -1.08054381
H        1.43605518       1.25334649       0.75977711      -0.01230066       0.02976181      -0.15232129      -0.48427105       1.39317189       0.90629683
H        2.60276621      -0.11292064       0.28027445      -0.09167132       0.23740563       0.45603658      -1.11319951      -0.24467530      -0.34560615
H       -0.30647655       0.23936970      -0.02033416      -0.04004034      -0.19213205      -0.02005789      -2.39502318       1.60246443       0.79968770
H        0.57538190      -1.10120183      -1.10405888      -0.82663899      -0.03872747       0.28651393       0.09016544      -0.94318168      -0.11706847
9
Lattice="13.0 0.0 0.0 0.0 9.0 0.0 0.0 0.0 9.0" Properties=species:S:1:pos:R:3:momenta:R:3:forces:R:3 EPS_SCF=1e-06 energy=-1399.8824617679163 units=gap_units Integrated_spin_density=6.55109e-05 opt_dir=/home/tks32/dft_pbe/apr_8_opt_fragments_subset/singlepoint_1_CO2 time=13.0 free_energy=-1399.8824617679163 pbc="T T T"
C       -2.13564832      -0.04753865      -0.00807269       2.57554180       0.67089430       0.33567057      -0.23150739       0.04387999       0.25987815
O       -2.20384751      -1.20502222      -0.25541114       4.66885300      -1.88584623      -0.69046388      -1.37418876       2.46043914       0.60823471
O       -1.95579173       1.09261716       0.34985186       4.26124193       1.77504606       0.40725000      -1.42381289      -2.81948021      -0.87420340
C        1.55074861       0.28687075       0.24607328      -5.66164194      -0.68540412      -0.59416699       4.88639844      -0.22342221       0.40426071
C        0.51507222      -0.41770145      -0.26081837      -4.41213434      -0.17962034      -0.11782587       3.38041363      -1.36051773      -0.82219628
H        1.40798835       1.24981169       0.76141841      -0.06712355       0.17083524      -0.09689551      -0.79285149       1.28829936       0.73269174
H        2.58643233      -0.10392271       0.27296457      -0.25058305       0.21673186       0.42771742      -1.64617569      -0.54849298      -0.60953631
H       -0.31190067       0.23544565       0.01352269      -0.32857050       0.02381343       0.08082805      -3.15844159       2.33007864       1.11989514
H        0.54694672      -1.09056022      -1.11952862      -0.78558334      -0.10645019       0.24788620       0.36016573      -1.17078401      -0.81902447
9
Lattice="13.0 0.0 0.0 0.0 9.0 0.0 0.0 0.0 9.0" Properties=species:S:1:pos:R:3:momenta:R:3:forces:R:3 EPS_SCF=1e-06 energy=-1399.55797141888 units=gap_units Integrated_spin_density=6.55109e-05 opt_dir=/home/tks32/dft_pbe/apr_8_opt_fragments_subset/singlepoint_1_CO2 time=14.0 free_energy=-1399.55797141888 pbc="T T T"
C       -2.10521259      -0.04638277      -0.01631377       2.52540875       0.49784107       0.27580598      -0.43423100      -1.06174560      -0.08487324
O       -2.16836731      -1.20847087      -0.25172953       4.54559392      -1.45844247      -0.54191610      -1.70974341       3.76858819       1.11101474
O       -1.91353857       1.09410865       0.33339943       4.17541954       1.38391961       0.18087050      -1.66753395      -3.07773230      -0.96470224
C        1.53242530       0.28432742       0.24366619      -5.17939447      -0.56280343      -0.51239329       5.40650636       0.64466642       0.96763476
C        0.50225745      -0.42751581      -0.25443303      -4.20225524      -0.25621358      -0.03904829       2.49516100      -0.62520590      -0.22986805
H        1.38262850       1.24586702       0.76305778      -0.15351297       0.29350201      -0.06792670      -0.98243852       0.70203579       0.29645626
H        2.57123037      -0.09674507       0.26288220      -0.39449644       0.10249990       0.35916078      -1.74081591      -0.79718982      -0.75648685
H       -0.31610251       0.23510509       0.05240830      -0.57925690       0.25805040       0.19036906      -1.98033660       1.74118842       0.91891123
H        0.51467937      -1.08029366      -1.13293758      -0.73750621      -0.25835351       0.15507806       0.61343202      -1.29460519      -1.25808661
9
Lattice="13.0 0.0 0.0 0.0 9.0 0.0 0.0 0.0 9.0" Properties=species:S:1:pos:R:3:momenta:R:3:forces:R:3 EPS_SCF=1e-06 energy=-1399.274398445914 units=gap_units Integrated_spin_density=6.55109e-05 opt_dir=/home/tks32/dft_pbe/apr_8_opt_fragments_subset/singlepoint_1_CO2 time=15.0 free_energy=-1399.274398445914 pbc="T T T"
C       -2.07630162      -0.04542383      -0.02532450       2.33654373       0.26232335       0.26478954      -0.74061271      -1.83347179      -0.34819464
O       -2.13221481      -1.21354903      -0.24875901       4.37224069      -1.20824535      -0.51552897      -1.92409163       4.60654356       1.45927921
O       -1.87562784       1.09420773       0.31489306       3.98169156       0.97857440       0.26384214      -1.76323060      -3.21843622      -1.03760500
C        1.51552998       0.28076217       0.24089409      -4.62233648      -0.34141760      -0.36976342       5.33369651       1.40612797       1.43204806
C        0.49131905      -0.43473938      -0.24731790      -3.89431749      -0.19636519      -0.11834027       1.27678309       0.40329378       0.01944100
H        1.35996680       1.24115156       0.76546006      -0.28084633       0.34124138      -0.06065118      -1.09697840      -0.05173907      -0.20397210
H        2.55714434      -0.09166778       0.25045705      -0.53069754       0.07464971       0.27919389      -1.53990088      -0.95043530      -0.81126884
H       -0.31900805       0.23863723       0.09519056      -0.68416416       0.40985338       0.27520441      -0.23764993       0.61563854       0.48210983
H        0.47919214      -1.06937868      -1.14549341      -0.67811398      -0.32061408      -0.01874615       0.69198455      -0.97752146      -0.99183751
9
Lattice="13.0 0.0 0.0 0.0 9.0 0.0 0.0 0.0 9.0" Properties=species:S:1:pos:R:3:momenta:R:3:forces:R:3 EPS_SCF=1e-06 energy=-1398.9386651185716 units=gap_units Integrated_spin_density=6.55109e-05 opt_dir=/home/tks32/dft_pbe/apr_8_opt_fragments_subset/singlepoint_1_CO2 time=16.0 free_energy=-1398.9386651185716 pbc="T T T"
C       -2.04940906      -0.04778021      -0.02431382       2.14031903       0.10054846       0.18258548      -1.03207666      -2.29549385      -0.51206666
O       -2.09707173      -1.21572006      -0.25606677       4.38604957      -0.73540309      -0.41978065      -2.06219242       5.06167586       1.67218627
O       -1.83684331       1.08807751       0.32410777       3.71889554       0.54330639       0.00668711      -1.67073396      -3.24999108      -1.06748427
C        1.49820528       0.27818478       0.23957252      -4.07575824      -0.23454822      -0.03450130       4.68073651       1.92198097       1.67918669
C        0.47975262      -0.43979164      -0.24980511      -3.90121496       0.04477658      -0.07685659       0.54979301       1.02443268      -0.18479612
H        1.33763311       1.24640547       0.74855469      -0.36925978       0.32533951      -0.08097848      -1.13664827      -0.71056871      -0.61184002
H        2.53900342      -0.09717744       0.26734270      -0.64791315       0.00467797       0.22051128      -1.19232669      -1.03642983      -0.79047818
H       -0.32188260       0.25654750       0.09933844      -0.61265539       0.35930531       0.26276303       1.13077419      -0.43320481       0.01264887
H        0.45061228      -1.06874593      -1.14873041      -0.63846261      -0.40800292      -0.06042989       0.73267430      -0.28240122      -0.19735658
9
Lattice="13.0 0.0 0.0 0.0 9.0 0.0 0.0 0.0 9.0" Properties=species:S:1:pos:R:3:momenta:R:3:forces:R:3 EPS_SCF=1e-06 energy=-1398.574460454305 units=gap_units Integrated_spin_density=6.55109e-05 opt_dir=/home/tks32/dft_pbe/apr_8_opt_fragments_subset/singlepoint_1_CO2 time=17.0 free_energy=-1398.574460454305 pbc="T T T"
C       -2.02431989      -0.05081803      -0.02356072       2.03484495      -0.03657817       0.16492042      -1.38912915      -2.49746993      -0.59266438
O       -2.06395226      -1.21731398      -0.26325703       3.88663864      -0.24678017      -0.40301662      -2.17582117       5.15786079       1.75856099