9
EPS_SCF=0.00000100 energy=-1401.8498565490638 units=gap_units Integrated_spin_density=0.00006551 opt_dir=/home/tks32/dft_pbe/apr_8_opt_fragments_subset/singlepoint_1_CO2 time=0.00000000 free_energy=-1401.84985654 cutoff=8.00000000 nneightol=1.20000000 pbc="T T T" Lattice="13.00000000       0.00000000       0.00000000       0.00000000       9.00000000       0.00000000       0.00000000       0.00000000       9.00000000" Properties=species:S:1:pos:R:3:momenta:R:3:forces:R:3:Z:I:1:map_shift:I:3:n_neighb:I:1:force:R:3:local_energy:R:1:gap_var:R:1:gap_variance_gradient:R:3
C              -2.66661630      0.00003508     -0.00008450      5.45409721      0.81308744     -0.21939016     -0.71616738      0.08149990      0.07809224       6       0       0       0      12     -0.71616740      0.08149946      0.07809209   -152.36801565      0.00469919      0.00753098     -0.00155187     -0.00082503
O              -2.79916745     -1.12388035     -0.32607284      6.91856637      1.60105312      0.69227000     -0.00977911      0.19278933      0.11863095       8       0       0       0      14     -0.00977908      0.19278975      0.11863108   -437.72026183      0.00376144     -0.00437837      0.00314623     -0.00002105
O              -2.53420761      1.12385113      0.32614266      6.44529771     -2.41414056     -0.47287984      0.60777930     -0.29930868     -0.09183242       8       0       0       0      14      0.60777928     -0.29930867     -0.09183241   -438.43012828      0.00381012      0.00944956     -0.00857660     -0.00114853
C               1.85829380      0.32653053      0.25008286     -5.69597901      0.88593916      0.41407752      0.57584133      0.68705914      0.43457040       6       0       0       0      15      0.57584140      0.68705888      0.43457017   -153.99792902      0.00306717      0.00582900     -0.00082158     -0.00063726
C               0.80837003     -0.32653266     -0.25007829     -6.07650281     -1.32504139      0.17494715     -0.90079645     -1.10620546     -0.51939980       6       0       0       0      14     -0.90079627     -1.10620558     -0.51939988   -153.07284990      0.00666219     -0.01240857      0.00762508      0.00899194
H               1.73876223      1.17877639      0.91904262     -0.67682574     -0.05175688     -0.30347750     -0.24543084      0.30760741      0.29124826       1       0       0       0      19     -0.24543082      0.30760755      0.29124838    -16.62958607      0.00316126     -0.00051773     -0.00123813     -0.00239676
H               2.88157783      0.03641793      0.01166621     -0.20088037     -0.43346916     -0.14053191      0.55674304      0.06718708     -0.00289936       1       0       0       0      15      0.55674287      0.06718716     -0.00289928    -16.58860884      0.00304409     -0.00057028      0.00009126     -0.00015559
H              -0.21491357     -0.03641919     -0.01166099     -0.11295227      0.37406457      0.09108301      0.27576887      0.09625598     -0.16517844       1       0       0       0      14      0.27576879      0.09625601     -0.16517842    -16.04784753      0.01509267     -0.00624351      0.00130748     -0.00380807
H               0.92790105     -1.17877889     -0.91903774     -0.29107960      0.55026370     -0.23609827     -0.14395874     -0.02688471     -0.14323184       1       0       0       0      19     -0.14395877     -0.02688457     -0.14323174    -16.99462942      0.00546950      0.00130894      0.00001814      0.00000035
9
EPS_SCF=0.00000100 energy=-1401.8674810345979 units=gap_units Integrated_spin_density=0.00006551 opt_dir=/home/tks32/dft_pbe/apr_8_opt_fragments_subset/singlepoint_1_CO2 time=1.00000000 free_energy=-1401.80709005 cutoff=8.00000000 nneightol=1.20000000 pbc="T T T" Lattice="13.00000000       0.00000000       0.00000000       0.00000000       9.00000000       0.00000000       0.00000000       0.00000000       9.00000000" Properties=species:S:1:pos:R:3:momenta:R:3:forces:R:3:Z:I:1:map_shift:I:3:n_neighb:I:1:force:R:3:local_energy:R:1:gap_var:R:1:gap_variance_gradient:R:3
C              -2.63979885     -0.00439466     -0.00035866      4.33379230      0.85202192     -0.22813873     -0.81150355     -1.42441597     -0.30617401       6       0       0       0      11     -0.70566663     -0.21757003      0.00992898   -152.45741566      0.00473753      0.00737278     -0.00060576     -0.00092559
O              -2.78543875     -1.12032972     -0.32514430      5.68534428      1.50966954      0.73141744      0.19302939     -0.43047360     -0.13568442       8       0       0       0      13     -0.04640254     -0.55157164     -0.13402824   -437.66262022      0.00372809     -0.00396018      0.00481680      0.00053969
O              -2.49712269      1.10692004      0.32851262      5.35278514     -2.29325472     -0.34703573      1.03688060      1.78035087      0.48871193       8       0       0       0      14      0.90806450      0.65854311      0.18651501   -438.41613180      0.00416082      0.01272881     -0.01133360     -0.00205867
C               1.84644714      0.32310296      0.24932420     -6.49319712      0.97275051      0.38506449      1.63794139     -0.77819499     -0.70970603       6       0       0       0      13      0.37310033      0.79352750      0.49759433   -154.02282257      0.00307602      0.00463650     -0.00071584     -0.00096554
C               0.79902800     -0.33350933     -0.25659586     -7.19264930     -1.48450644      0.09409432     -0.56899382     -0.25673259     -0.01772384       6       0       0       0      14     -1.08692286     -0.76450602     -0.29603792   -153.05662570      0.00657187     -0.01184839      0.00735090      0.00835663
H               1.71772222      1.18426797      0.91064962     -0.79598878      0.03390291     -0.28193947     -0.06592477      0.98773189      0.86949274       1       0       0       0      19     -0.22286803      0.17167484      0.19752341    -16.64519733      0.00328727     -0.00165108     -0.00126191     -0.00257505
H               2.86749841      0.03425043      0.02715550     -0.31185103     -0.41557069     -0.08813917     -0.65869152      0.71712952      0.49794926       1       0       0       0      15      0.79267540      0.01641123     -0.03645502    -16.59076951      0.00305057     -0.00123498      0.00032993     -0.00011165
H              -0.21156925     -0.01008331     -0.00927352     -0.24178677      0.34712648      0.04521078     -0.55752186      0.19174938     -0.04621524       1       0       0       0      14      0.11614773      0.09840280     -0.18569461    -15.96757917      0.01522504     -0.00748641      0.00069734     -0.00239573
H               0.90323378     -1.18022438     -0.92426960     -0.33644872      0.47786049     -0.31053392     -0.20521585     -0.78714452     -0.64065039       1       0       0       0      19     -0.12812789     -0.20491179     -0.23934595    -17.04831907      0.00562772      0.00144295      0.00072214      0.00013592
9
EPS_SCF=0.00000100 energy=-1401.8243897598218 units=gap_units Integrated_spin_density=0.00006551 opt_dir=/home/tks32/dft_pbe/apr_8_opt_fragments_subset/singlepoint_1_CO2 time=2.00000000 free_energy=-1401.67462158 cutoff=8.00000000 nneightol=1.20000000 pbc="T T T" Lattice="13.00000000       0.00000000       0.00000000       0.00000000       9.00000000       0.00000000       0.00000000       0.00000000       9.00000000" Properties=species:S:1:pos:R:3:momenta:R:3:forces:R:3:Z:I:1:map_shift:I:3:n_neighb:I:1:force:R:3:local_energy:R:1:gap_var:R:1:gap_variance_gradient:R:3
C              -2.61071580     -0.01268645     -0.00903984      4.18961870      0.58808281     -0.21318432     -0.79890505     -2.84338816     -0.68243680       6       0       0       0      11     -0.78722841     -1.28600123     -0.23287353   -152.51493515      0.00474315      0.00614817      0.00145362     -0.00041346
O              -2.75115980     -1.13376422     -0.32460140      5.83658565      1.45276544      0.57954698      0.20674923     -1.14170949     -0.40303280       8       0       0       0      13      0.11297469     -0.56011252     -0.20717830   -437.64792279      0.00363889     -0.00325040      0.00561418      0.00078851
O              -2.48020533      1.08836660      0.32132132      5.41636925     -1.94633903     -0.19699841      1.26652863      3.89976846      1.10538090       8       0       0       0      14      1.09001055      1.71590640      0.48126144   -438.38486155      0.00450841      0.01447147     -0.01321486     -0.00261687
C               1.83371683      0.31518224      0.24616999     -6.24674736      0.78628328      0.40527052      2.06040657     -1.91621692     -1.48368732       6       0       0       0      13      0.77833358      0.85641722      0.56273700   -153.96953513      0.00309306      0.00168598     -0.00105248     -0.00155643
C               0.79155452     -0.31897419     -0.25228678     -7.31324149     -1.43031665     -0.05102324      0.01704591      0.38986945      0.41079465       6       0       0       0      14     -1.77077057     -0.86671445     -0.39418284   -152.96572765      0.00648020     -0.00749495      0.00790601      0.00884095
H               1.71534276      1.18377688      0.90150560     -0.85381452      0.13773793     -0.15637603      0.06415122      1.25600432      1.09991196       1       0       0       0      19     -0.21343594      0.09034254      0.14301804    -16.66604048      0.00333852     -0.00206155     -0.00141638     -0.00290039
H               2.85322933      0.00674814      0.03192373     -0.38501136     -0.32317112     -0.01488909     -1.43157696      1.24656717      0.84923773       1       0       0       0      15      0.75373945      0.09124626      0.01512333    -16.62536276      0.00305194     -0.00217687      0.00039493     -0.00019275
H              -0.21628970      0.04209410      0.01368045     -0.28824680      0.35728396      0.04430368     -1.18585879      0.31792362      0.06089582       1       0       0       0      14      0.25828850      0.00481639     -0.30129754    -15.91810798      0.01550329     -0.01000800      0.00053137     -0.00098258
H               0.86452719     -1.17074309     -0.92867306     -0.35551208      0.37767338     -0.39665010     -0.19854076     -1.20881845     -0.95706415       1       0       0       0      19     -0.22191185     -0.04590061     -0.06660759    -17.13189627      0.00578609      0.00268614     -0.00021640     -0.00096698
9
EPS_SCF=0.00000100 energy=-1401.7892326210781 units=gap_units Integrated_spin_density=0.00006551 opt_dir=/home/tks32/dft_pbe/apr_8_opt_fragments_subset/singlepoint_1_CO2 time=3.00000000 free_energy=-1401.55056824 cutoff=8.00000000 nneightol=1.20000000 pbc="T T T" Lattice="13.00000000       0.00000000       0.00000000       0.00000000       9.00000000       0.00000000       0.00000000       0.00000000       9.00000000" Properties=species:S:1:pos:R:3:momenta:R:3:forces:R:3:Z:I:1:map_shift:I:3:n_neighb:I:1:force:R:3:local_energy:R:1:gap_var:R:1:gap_variance_gradient:R:3
C              -2.58295545     -0.01953890     -0.00875846      4.07138753      0.41386169     -0.24725092     -0.72950985     -3.96429592     -1.00782828       6       0       0       0      11     -0.76320278     -1.87969375     -0.37842852   -152.58668905      0.00479842      0.00515236      0.00361563     -0.00070093
O              -2.71368924     -1.14333842     -0.32078183      5.81442161      1.19913423      0.56414338     -0.20010234     -2.03571284     -0.69468309       8       0       0       0      13      0.22835607     -0.64360280     -0.28205469   -437.65937537      0.00357001     -0.00104092      0.00672815      0.00092846
O              -2.46575394      1.07471986      0.32646217      5.46339130     -1.55894459     -0.17210227      1.21590921      5.90540747      1.70951904       8       0       0       0      14      1.12147474      2.39316046      0.66246034   -438.34224015      0.00480741      0.01555434     -0.01415322     -0.00334721
C               1.81743302      0.31166913      0.24808282     -5.92234737      0.68982411      0.20405339      1.60892804     -2.52755940     -1.84248447       6       0       0       0      13      1.10063446      0.46978133      0.30442842   -153.91466716      0.00313688     -0.00220233     -0.00080340     -0.00270621
C               0.78455703     -0.30208666     -0.25109376     -7.30574219     -1.44656198      0.13345850      1.30949159      0.71403671      0.47981591       6       0       0       0      14     -2.01180280     -0.96386415     -0.55048027   -152.88199560      0.00647185     -0.00431865      0.00931204      0.00858529
H               1.71068575      1.18589810      0.88706789     -0.84230628      0.21153957     -0.06415624      0.30427320      1.00629956      0.94965096       1       0       0       0      19     -0.22409085      0.24684926      0.26862049    -16.69517813      0.00340583     -0.00248648     -0.00157822     -0.00316150
H               2.84031738     -0.02565346      0.05019672     -0.51883287     -0.21330493      0.04821430     -1.73761583      1.57895576      1.04365547       1       0       0       0      15      0.47383457      0.22181050      0.10546352    -16.65836194      0.00305113     -0.00238962      0.00027278     -0.00050164
H              -0.22952077      0.08137836     -0.00105342     -0.40903545      0.41494358      0.02540587     -1.49353444      0.40290776      0.14159045       1       0       0       0      14      0.34757639      0.00343534     -0.25761637    -15.87837371      0.01570605     -0.01166882     -0.00211330      0.00267474
H               0.83892623     -1.16304801     -0.93012214     -0.35093626      0.28950832     -0.49176601     -0.27783958     -1.08003911     -0.77923599       1       0       0       0      19     -0.27277980      0.15212380      0.12760710    -17.17235151      0.00586742      0.00340012     -0.00128046     -0.00177100
9
EPS_SCF=0.00000100 energy=-1401.7562998127466 units=gap_units Integrated_spin_density=0.00006551 opt_dir=/home/tks32/dft_pbe/apr_8_opt_fragments_subset/singlepoint_1_CO2 time=4.00000000 free_energy=-1401.44746234 cutoff=8.00000000 nneightol=1.20000000 pbc="T T T" Lattice="13.00000000       0.00000000       0.00000000       0.00000000       9.00000000       0.00000000       0.00000000       0.00000000       9.00000000" Properties=species:S:1:pos:R:3:momenta:R:3:forces:R:3:Z:I:1:map_shift:I:3:n_neighb:I:1:force:R:3:local_energy:R:1:gap_var:R:1:gap_variance_gradient:R:3
C              -2.55609830     -0.02701709     -0.01635682      3.83401644      0.10215286     -0.30272091     -0.75647870     -4.47581160     -1.19155721       6       0       0       0      11     -0.72446802     -2.92842928     -0.60624693   -152.62949171      0.00478682      0.00506422      0.00590052     -0.00029973
O              -2.67783887     -1.15991908     -0.31661184      5.85595134      1.02640977      0.45889368     -0.47036453     -2.92120069     -0.97914372       8       0       0       0      13      0.40096303     -0.35163070     -0.28578890   -437.68109142      0.00347814      0.00053801      0.00667844      0.00063583
O              -2.45417453      1.06010540      0.32287743      5.57674072     -0.91675655      0.05513117      0.95230845      7.34604293      2.15065098       8       0       0       0      14      1.16343236      3.12668885      0.84752177   -438.30118832      0.00509450      0.01520976     -0.01417949     -0.00339355
C               1.80577543      0.30315304      0.24538941     -5.80104505      0.35788733     -0.01122505      0.43910267     -2.65851440     -1.84838987       6       0       0       0      13      1.24452827      0.33847051      0.25967194   -153.86714865      0.00320482     -0.00669539     -0.00019810     -0.00330701
C               0.77722201     -0.28867247     -0.25195356     -7.08094126     -1.40037582      0.12574407      2.29954060      1.04792506      0.33780985       6       0       0       0      14     -2.35156175     -0.78859396     -0.47798687   -152.80825455      0.00648139      0.00055282      0.00913050      0.00861715
H               1.70738104      1.18603277      0.87633281     -0.79038513      0.29900812      0.01256534      0.74239993      0.38161103      0.53951527       1       0       0       0      19     -0.18948519      0.16747735      0.21407588    -16.71083496      0.00345840     -0.00257634     -0.00156627     -0.00331906
H               2.82720623     -0.05605192      0.06264243     -0.68298578     -0.06848502      0.13455189     -1.59750662      1.69495291      1.08629721       1       0       0       0      15      0.40894367      0.29400873      0.14361328    -16.69027396      0.00305865     -0.00312011      0.00018013     -0.00069719
H              -0.23284049      0.13518672      0.01369669     -0.54448456      0.42301594      0.03037325     -1.16525455      0.24058734      0.11549849       1       0       0       0      14      0.46105035     -0.14674720     -0.37011704    -15.84671235      0.01576020     -0.01221728     -0.00315699      0.00451472
H               0.80336749     -1.15281736     -0.93601655     -0.36686672      0.17714336     -0.50331344     -0.44374724     -0.65559258     -0.21068101       1       0       0       0      19     -0.41340272      0.28875570      0.27525688    -17.22130388      0.00595864      0.00324432     -0.00278874     -0.00275117
9
EPS_SCF=0.00000100 energy=-1401.7068960507906 units=gap_units Integrated_spin_density=0.00006551 opt_dir=/home/tks32/dft_pbe/apr_8_opt_fragments_subset/singlepoint_1_CO2 time=5.00000000 free_energy=-1401.34185730 cutoff=8.00000000 nneightol=1.20000000 pbc="T T T" Lattice="13.00000000       0.00000000       0.00000000       0.00000000       9.00000000       0.00000000       0.00000000       0.00000000       9.00000000" Properties=species:S:1:pos:R:3:momenta:R:3:forces:R:3:Z:I:1:map_shift:I:3:n_neighb:I:1:force:R:3:local_energy:R:1:gap_var:R:1:gap_variance_gradient:R:3
C              -2.53108588     -0.03988792     -0.01539111      3.65034013     -0.26394012     -0.45399097     -0.85835256     -3.84630863     -1.04632120       6       0       0       0      11     -0.59228485     -4.10419142     -1.12782749   -152.68168603      0.00479205      0.00551323      0.00817016     -0.00004186
O              -2.63384844     -1.17331992     -0.33784756      5.67886877      0.51872535      0.32313584     -0.58112975     -3.74934489     -1.23641473       8       0       0       0      13      0.49189672     -0.11412302     -0.15932221   -437.72030057      0.00340369      0.00254775      0.00651909      0.00036343
O              -2.44276517      1.04050769      0.32042316      5.56681262      0.00639366      0.23174546      0.41707803      7.67174886      2.25093872       8       0       0       0      14      1.16702912      4.05501693      1.21284114   -438.25382029      0.00537221      0.01370312     -0.01412544     -0.00313000
C               1.79420056      0.29383961      0.23901609     -5.65370070      0.16709423     -0.13705955     -0.93536068     -2.28856532     -1.53465339       6       0       0       0      12      1.83943740      0.46648319      0.43718480   -153.79155368      0.00331399     -0.01216938      0.00057364     -0.00369698
C               0.76947311     -0.27305570     -0.24301535     -6.65067701     -1.34894459      0.20491727      2.67646047      1.52320041      0.11226271       6       0       0       0      13     -3.21326092     -0.87824561     -0.67211543   -152.69510599      0.00659812      0.00722934      0.00860349      0.00892328
H               1.71050776      1.19013077      0.85876220     -0.71443047      0.30197197      0.07206222      1.18893813     -0.40118918      0.02163459       1       0       0       0      19     -0.12408122      0.04059952      0.12613986    -16.73085572      0.00350658     -0.00261357     -0.00156375     -0.00351487
H               2.81275554     -0.09003177      0.06488905     -0.81175678      0.09106857      0.19400007     -0.94097474      1.52892808      0.97588576       1       0       0       0      15      0.30262025      0.38168946      0.19176826    -16.73255454      0.00307402     -0.00382562     -0.00025261     -0.00102195
H              -0.23787968      0.19842261      0.04434944     -0.62076290      0.40360439      0.04915803     -0.34630828     -0.25048393     -0.04128985       1       0       0       0      14      0.63321136     -0.40587507     -0.52279792    -15.83243746      0.01582814     -0.01259977     -0.00279549      0.00610400
H               0.75864221     -1.14660536     -0.93118592     -0.44469366      0.12402654     -0.48396837     -0.62035063     -0.18798540      0.49795738       1       0       0       0      19     -0.50456787      0.55864602      0.51412900    -17.26858176      0.00612640      0.00221489     -0.00512910     -0.00398505
9
EPS_SCF=0.00000100 energy=-1401.6602147301408 units=gap_units Integrated_spin_density=0.00006551 opt_dir=/home/tks32/dft_pbe/apr_8_opt_fragments_subset/singlepoint_1_CO2 time=6.00000000 free_energy=-1401.15646345 cutoff=8.00000000 nneightol=1.20000000 pbc="T T T" Lattice="13.00000000       0.00000000       0.00000000       0.00000000       9.00000000       0.00000000       0.00000000       0.00000000       9.00000000" Properties=species:S:1:pos:R:3:momenta:R:3:forces:R:3:Z:I:1:map_shift:I:3:n_neighb:I:1:force:R:3:local_energy:R:1:gap_var:R:1:gap_variance_gradient:R:3
C              -2.50507186     -0.05083787     -0.01655650      3.44040887     -0.73444560     -0.48257399     -1.08994558     -2.02998433     -0.53927024       6       0       0       0      11     -0.32862181     -3.90845143     -1.20138542   -152.72683585      0.00487638      0.00579057      0.00827711      0.00008206
O              -2.59026302     -1.18448181     -0.35748279      5.56433060      0.23507098      0.19688949     -0.58295557     -4.52071845     -1.45151581       8       0       0       0      13      0.43614139      0.20012152      0.01352320   -437.77239156      0.00338630      0.00466936      0.00596002      0.00014418
O              -2.42727561      1.03485750      0.31692400      5.50466521      0.75119573      0.39936073     -0.36758255      6.83543406      1.98809730       8       0       0       0      14      0.93284744      3.56144802      1.13344407   -438.26282211      0.00554742      0.01227246     -0.01235607     -0.00189542
C               1.77885505      0.28951587      0.23300607     -5.66227291      0.11548816     -0.25044162     -2.29327118     -1.69526041     -1.09123715       6       0       0       0      12      3.29084745      0.80151840      0.83794053   -153.68648676      0.00348891     -0.01764438      0.00033089     -0.00382510
C               0.76364910     -0.25690852     -0.23065784     -6.33658310     -1.21289169      0.17536752      2.55437441      2.16332940     -0.02746076       6       0       0       0      13     -4.63160048     -1.61370405     -1.31622177   -152.55215929      0.00684329      0.01340151      0.00881253      0.01030147
H               1.71070108      1.19089347      0.84367951     -0.58998536      0.19816171      0.05981090      1.45894146     -0.98926402     -0.37595699       1       0       0       0      18     -0.07587235      0.09919173      0.16407241    -16.77111402      0.00358944     -0.00277189     -0.00173468     -0.00366108
H               2.79949361     -0.11570347      0.06017568     -0.82991461      0.16353986      0.27484889      0.24074476      1.05676726      0.71432274       1       0       0       0      15      0.01529620      0.52533415      0.25011914    -16.77899998      0.00309630     -0.00393618     -0.00087958     -0.00136164
H              -0.25321474      0.23128012      0.07907037     -0.60736388      0.38767575      0.02541723      0.79495426     -0.97728598     -0.29820946       1       0       0       0      13      0.80989504     -0.52299331     -0.63756273    -15.81931388      0.01604619     -0.01331429     -0.00105296      0.00542235
H               0.72312638     -1.13861531     -0.92815850     -0.48328484      0.09620511     -0.39867914     -0.71526001      0.15698246      1.08123039       1       0       0       0      19     -0.44893287      0.85753498      0.75607059    -17.29009128      0.00634485      0.00153283     -0.00735726     -0.00520682
9
EPS_SCF=0.00000100 energy=-1401.6598953473137 units=gap_units Integrated_spin_density=0.00006551 opt_dir=/home/tks32/dft_pbe/apr_8_opt_fragments_subset/singlepoint_1_CO2 time=7.00000000 free_energy=-1400.86733605 cutoff=8.00000000 nneightol=1.20000000 pbc="T T T" Lattice="13.00000000       0.00000000       0.00000000       0.00000000       9.00000000       0.00000000       0.00000000       0.00000000       9.00000000" Properties=species:S:1:pos:R:3:momenta:R:3:forces:R:3:Z:I:1:map_shift:I:3:n_neighb:I:1:force:R:3:local_energy:R:1:gap_var:R:1:gap_variance_gradient:R:3
C              -2.47758555     -0.05435420     -0.02215243      3.31876121     -0.75616810     -0.48184389     -1.42852142      0.54707180      0.21831118       6       0       0       0      11     -0.20642820     -3.55896300     -1.01870003   -152.83027291      0.00502119      0.00604038      0.00829872      0.00038798
O              -2.56966340     -1.18650155     -0.35455009      5.44871454     -0.34101692      0.07570663     -0.65642250     -5.29004395     -1.67432059       8       0       0       0      13      0.35433956     -0.16020951     -0.14828872   -437.76378840      0.00339031      0.00583944      0.00669104      0.00028703
O              -2.39406542      1.02956570      0.31639559      5.23543133      1.43623026      0.52406595     -0.99505371      5.11116173      1.44994267       8       0       0       0      14      0.68885165      3.65158238      1.14933184   -438.21838483      0.00585813      0.01136454     -0.01246588     -0.00178913
C               1.76458395      0.28773139      0.23135518     -5.92735477      0.02980733     -0.46025183     -3.29929900     -1.00100449     -0.64975654       6       0       0       0      12      3.70624002      0.92272375      0.98931408   -153.66863030      0.00371505     -0.02062207      0.00017087     -0.00385968
C               0.75645824     -0.25848781     -0.23232535     -5.88132034     -1.06564047      0.23448295      2.21999424      2.72147129     -0.15211192       6       0       0       0      13     -4.99633049     -1.69154173     -1.43710792   -152.50419946      0.00695973      0.01590795      0.00834574      0.01034320
H               1.69318910      1.19281536      0.83655286     -0.40545984      0.05834586     -0.02811580      1.51379619     -1.21482962     -0.53646546       1       0       0       0      18     -0.06652558      0.08877908      0.16174342    -16.80306825      0.00374969     -0.00252658     -0.00181915     -0.00359676
H               2.78631710     -0.11992592      0.06867683     -0.71680339      0.22959880      0.36886235      1.61980708      0.41929860      0.40156713       1       0       0       0      15      0.01133555      0.54599320      0.25017991    -16.79349860      0.00310777     -0.00405946     -0.00100287     -0.00145945
H              -0.26061516      0.24325496      0.09162059     -0.49856818      0.27096309      0.05107255      1.81601061     -1.62472498     -0.53697017       1       0       0       0      13      0.88103960     -0.58739736     -0.69537278    -15.77431483      0.01602930     -0.01306702     -0.00036751      0.00513230
H               0.70138115     -1.13409794     -0.93557318     -0.57340058      0.13788016     -0.28397891     -0.79031149      0.33159963      1.47980370       1       0       0       0      19     -0.37252210      0.78903321      0.74890020    -17.30373776      0.00645450      0.00112283     -0.00785097     -0.00544548
9
EPS_SCF=0.00000100 energy=-1401.6047685365897 units=gap_units Integrated_spin_density=0.00006551 opt_dir=/home/tks32/dft_pbe/apr_8_opt_fragments_subset/singlepoint_1_CO2 time=8.00000000 free_energy=-1400.63932447 cutoff=8.00000000 nneightol=1.20000000 pbc="T T T" Lattice="13.00000000       0.00000000       0.00000000       0.00000000       9.00000000       0.00000000       0.00000000       0.00000000       9.00000000" Properties=species:S:1:pos:R:3:momenta:R:3:forces:R:3:Z:I:1:map_shift:I:3:n_neighb:I:1:force:R:3:local_energy:R:1:gap_var:R:1:gap_variance_gradient:R:3
C              -2.45339259     -0.06477532     -0.02135802      3.22826183     -0.59332327     -0.40465234     -1.43961527      2.52564709      0.84108578       6       0       0       0      11     -0.07734570     -3.46742196     -1.19623305   -152.89003674      0.00512690      0.00602075      0.00806499      0.00083354
O              -2.54579917     -1.18625263     -0.38375240      5.08278534     -0.98661558     -0.23300479     -0.58609086     -5.46601848     -1.77024296       8       0       0       0      13      0.37775528     -0.37217346     -0.11958680   -437.77419714      0.00339465      0.00559348      0.00635039      0.00062373
O              -2.36051159      1.01872709      0.31125228      5.05965592      1.90414592      0.59438627     -1.23343241      3.31170274      0.90250707       8       0       0       0      13      0.39677950      3.90196823      1.36072308   -438.17955588      0.00614274      0.01113645     -0.01367636     -0.00140009
C               1.75464781      0.28198626      0.22125961     -6.07019905     -0.02107170     -0.38694009     -3.86014928     -0.54134813     -0.41059936       6       0       0       0      12      4.12828144      1.44755668      1.37716897   -153.64367940      0.00393341     -0.02285319     -0.00042218     -0.00281590