9
energy=-1401.8498565491093 cutoff=8.00000000 nneightol=1.20000000 pbc="T T T" Lattice="13.00000000       0.00000000       0.00000000       0.00000000       9.00000000       0.00000000       0.00000000       0.00000000       9.00000000" Properties=species:S:1:pos:R:3:Z:I:1:map_shift:I:3:n_neighb:I:1:force:R:3:local_energy:R:1:gap_var:R:1:gap_variance_gradient:R:3
C               0.00005179      0.00003613     -0.00008682       6       0       0       0      12     -0.71616740      0.08149946      0.07809209   -152.36801565      0.00469919      0.00753098     -0.00155187     -0.00082503
O              -0.13249936     -1.12387930     -0.32607516       8       0       0       0      14     -0.00977908      0.19278975      0.11863108   -437.72026183      0.00376144     -0.00437837      0.00314623     -0.00002105
O               0.13246048      1.12385218      0.32614034       8       0       0       0      14      0.60777928     -0.29930867     -0.09183241   -438.43012828      0.00381012      0.00944956     -0.00857660     -0.00114853
C               4.52496189      0.32653158      0.25008054       6       0       0       0      15      0.57584140      0.68705888      0.43457017   -153.99792902      0.00306717      0.00582900     -0.00082158     -0.00063726
C               3.47503812     -0.32653161     -0.25008061       6       0       0       0      14     -0.90079627     -1.10620558     -0.51939988   -153.07284990      0.00666219     -0.01240857      0.00762508      0.00899194
H               4.40543032      1.17877744      0.91904030       1       0       0       0      19     -0.24543082      0.30760755      0.29124838    -16.62958607      0.00316126     -0.00051773     -0.00123813     -0.00239676
H               5.54824592      0.03641898      0.01166389       1       0       0       0      15      0.55674287      0.06718716     -0.00289928    -16.58860884      0.00304409     -0.00057028      0.00009126     -0.00015559
H               2.45175452     -0.03641814     -0.01166331       1       0       0       0      14      0.27576879      0.09625601     -0.16517842    -16.04784753      0.01509267     -0.00624351      0.00130748     -0.00380807
H               3.59456914     -1.17877784     -0.91904006       1       0       0       0      19     -0.14395877     -0.02688457     -0.14323174    -16.99462942      0.00546950      0.00130894      0.00001814      0.00000035
9
energy=-1401.8523181767625 cutoff=8.00000000 nneightol=1.20000000 pbc="T T T" Lattice="13.00000000       0.00000000       0.00000000       0.00000000       9.00000000       0.00000000       0.00000000       0.00000000       9.00000000" Properties=species:S:1:pos:R:3:Z:I:1:map_shift:I:3:n_neighb:I:1:force:R:3:local_energy:R:1:gap_var:R:1:gap_variance_gradient:R:3
C               0.03623791      0.00729190     -0.00192878       6       0       0       0      11     -0.77291031     -1.30057102     -0.26568029   -152.52326229      0.00491997      0.00691998      0.00020252      0.00021014
O              -0.09793585     -1.11454172     -0.31926263       8       0       0       0      13      0.18113223     -0.47615428     -0.14649692   -437.70977716      0.00368571     -0.00202023      0.00587859      0.00110897
O               0.16477460      1.11128095      0.32081885       8       0       0       0      14      1.04446913      1.69374697      0.46631645   -438.34524487      0.00438420      0.01509040     -0.01361049     -0.00221845
C               4.47624411      0.33684437      0.24238236       6       0       0       0      13      0.99023737      0.24657455      0.06992590   -154.04665224      0.00309477      0.00325539     -0.00077194     -0.00029695
C               3.41942369     -0.33499600     -0.24037707       6       0       0       0      14     -0.97633306     -0.91716082     -0.50231877   -153.06559091      0.00661521     -0.01477657      0.00822761      0.00984566
H               4.33523498      1.20173970      0.88836193       1       0       0       0      19      0.01664408      0.29467914      0.31221830    -16.65782326      0.00340947     -0.00266533     -0.00111986     -0.00235472
H               5.50741270      0.01213406     -0.00825682       1       0       0       0      15     -0.00837521      0.48178554      0.30847790    -16.60145193      0.00302832     -0.00024873     -0.00064242     -0.00060741
H               2.42043230     -0.00492328      0.01950256       1       0       0       0      14     -0.17691634      0.10147257     -0.15519843    -15.87551452      0.01549906     -0.00896612      0.00176904     -0.00527144
H               3.55341782     -1.16160272     -0.93597529       1       0       0       0      19     -0.29794789     -0.12437264     -0.08724414    -17.02700099      0.00568897      0.00341120      0.00006695     -0.00041581
9
energy=-1401.8185015099036 cutoff=8.00000000 nneightol=1.20000000 pbc="T T T" Lattice="13.00000000       0.00000000       0.00000000       0.00000000       9.00000000       0.00000000       0.00000000       0.00000000       9.00000000" Properties=species:S:1:pos:R:3:Z:I:1:map_shift:I:3:n_neighb:I:1:force:R:3:local_energy:R:1:gap_var:R:1:gap_variance_gradient:R:3
C               0.07149641      0.01355648     -0.00352211       6       0       0       0      11     -0.72681747     -2.32060332     -0.51323242   -152.68279639      0.00519204      0.00532660      0.00299500      0.00138446
O              -0.06268844     -1.10560951     -0.31282178       8       0       0       0      13      0.21282694     -1.22193224     -0.41689263   -437.69336188      0.00359571      0.00208545      0.00908501      0.00204415
O               0.19805930      1.10157673      0.31787808       8       0       0       0      14      1.23843730      3.43950147      0.96444270   -438.21354288      0.00509951      0.01685215     -0.01758103     -0.00333447
C               4.42997747      0.32494410      0.23924553       6       0       0       0      13      1.37785501     -0.09576308     -0.17498534   -154.08201316      0.00325406     -0.00249196     -0.00062590     -0.00044109
C               3.36264008     -0.34859147     -0.23573716       6       0       0       0      14     -1.04762753     -0.78690159     -0.65656172   -153.09145487      0.00669545     -0.01444006      0.00919340      0.01012909
H               4.27432623      1.19422585      0.87960535       1       0       0       0      19      0.21811989      0.16742036      0.27080450    -16.68890883      0.00368610     -0.00251223     -0.00047908     -0.00184338
H               5.46313633     -0.03518716     -0.02622964       1       0       0       0      15     -0.41662278      0.84191217      0.57900898    -16.60092732      0.00303150     -0.00020533     -0.00129869     -0.00110731
H               2.38810659      0.03479014      0.04178772       1       0       0       0      14     -0.45092183      0.09308277     -0.13920052    -15.71554737      0.01592803     -0.01037947     -0.00002324     -0.00504202
H               3.50215622     -1.13211395     -0.98441885       1       0       0       0      19     -0.40524951     -0.11671655      0.08661646    -17.04994882      0.00590283      0.00576487     -0.00126546     -0.00178943
9
energy=-1401.7769276326808 cutoff=8.00000000 nneightol=1.20000000 pbc="T T T" Lattice="13.00000000       0.00000000       0.00000000       0.00000000       9.00000000       0.00000000       0.00000000       0.00000000       9.00000000" Properties=species:S:1:pos:R:3:Z:I:1:map_shift:I:3:n_neighb:I:1:force:R:3:local_energy:R:1:gap_var:R:1:gap_variance_gradient:R:3
C               0.10543378      0.01783904     -0.00539828       6       0       0       0      11     -0.58892898     -3.19840715     -0.78485861   -152.85658208      0.00550925      0.00584771      0.00693830      0.00275601
O              -0.02687552     -1.09733561     -0.32140089       8       0       0       0      13     -0.10159663     -1.73829679     -0.62255239   -437.68667634      0.00355889      0.00660662      0.01181373      0.00263037
O               0.23137509      1.09055398      0.32940866       8       0       0       0      14      1.13601459      4.83193468      1.43061920   -438.06797796      0.00580288      0.01354632     -0.01946497     -0.00461297
C               4.38191164      0.30613096      0.25270620       6       0       0       0      13      1.24018372     -0.42189202     -0.40105133   -154.13257051      0.00360184     -0.00710726      0.00001603     -0.00105032
C               3.30333505     -0.35972232     -0.24283963       6       0       0       0      14     -0.36079686     -0.47818650     -0.81440331   -153.14467764      0.00691804     -0.01294808      0.00937290      0.00932479
H               4.20837346      1.16485051      0.91115862       1       0       0       0      19      0.38027392     -0.02564911      0.19705852    -16.71222391      0.00398667     -0.00263530     -0.00005940     -0.00143364
H               5.41314997     -0.07647898     -0.02344915       1       0       0       0      15     -0.59305947      1.05433016      0.77087673    -16.58021525      0.00304420     -0.00021562     -0.00168219     -0.00162965
H               2.35181722      0.07696917      0.04452058       1       0       0       0      14     -0.59394317      0.06380986     -0.09318007    -15.55603054      0.01613006     -0.01077258     -0.00399429     -0.00251010
H               3.45847313     -1.06832963     -1.06814101       1       0       0       0      19     -0.51814711     -0.08764312      0.31749125    -17.03997340      0.00609298      0.00767820     -0.00294011     -0.00347449
9
energy=-1401.7293938925384 cutoff=8.00000000 nneightol=1.20000000 pbc="T T T" Lattice="13.00000000       0.00000000       0.00000000       0.00000000       9.00000000       0.00000000       0.00000000       0.00000000       9.00000000" Properties=species:S:1:pos:R:3:Z:I:1:map_shift:I:3:n_neighb:I:1:force:R:3:local_energy:R:1:gap_var:R:1:gap_variance_gradient:R:3
C               0.13751780      0.02009807     -0.00771828       6       0       0       0      11     -0.41476646     -2.29165926     -0.50968979   -153.05793989      0.00587712      0.00681380      0.00906310      0.00348509
O               0.00909428     -1.09023081     -0.31215058       8       0       0       0      13     -0.36712650     -2.64942548     -0.90824784   -437.64503239      0.00360580      0.00929400      0.01409330      0.00276741
O               0.26540774      1.09381289      0.32652034       8       0       0       0      15      0.67699826      4.90700181      1.41685372   -437.98111717      0.00633209      0.00922346     -0.01855086     -0.00453577
C               4.33148708      0.31593523      0.26003334       6       0       0       0      13      0.45186368     -0.87078530     -0.69300256   -154.19298736      0.00403866     -0.00761740      0.00069207     -0.00159559
C               3.24489368     -0.36583209     -0.24617959       6       0       0       0      14      0.66964378      0.06479152     -0.72982990   -153.17337886      0.00718193     -0.00963302      0.00825682      0.00743359
H               4.13437160      1.18145107      0.91461951       1       0       0       0      19      0.64250303     -0.17689580      0.13317996    -16.73003727      0.00437920     -0.00451145      0.00022873     -0.00125335
H               5.35925379     -0.08131731     -0.00408829       1       0       0       0      15     -0.53733470      1.13177674      0.81452202    -16.54894706      0.00305668     -0.00017708     -0.00179419     -0.00193049
H               2.31150379      0.12037393      0.03605439       1       0       0       0      14     -0.52622379     -0.03090231     -0.04764120    -15.39460568      0.01608977     -0.01275753     -0.00746184      0.00055370
H               3.42632338     -1.01945334     -1.11836020       1       0       0       0      20     -0.59555730     -0.08390192      0.52385560    -17.00534821      0.00623194      0.00936523     -0.00452713     -0.00492459
9
energy=-1401.6334103865352 cutoff=8.00000000 nneightol=1.20000000 pbc="T T T" Lattice="13.00000000       0.00000000       0.00000000       0.00000000       9.00000000       0.00000000       0.00000000       0.00000000       9.00000000" Properties=species:S:1:pos:R:3:Z:I:1:map_shift:I:3:n_neighb:I:1:force:R:3:local_energy:R:1:gap_var:R:1:gap_variance_gradient:R:3
C               0.16818982      0.01925811     -0.01085597       6       0       0       0      11     -0.44384529     -1.08796124     -0.17307929   -153.25580803      0.00624437      0.00856569      0.00958667      0.00353277
O               0.04440527     -1.08532600     -0.30974011       8       0       0       0      13     -0.50483504     -3.40062457     -1.14325007   -437.59805755      0.00369248      0.01010172      0.01522994      0.00246433
O               0.29955189      1.09548038      0.32890767       8       0       0       0      15      0.06531407      4.58220223      1.30437011   -437.91336579      0.00670648      0.00361117     -0.01662238     -0.00421114
C               4.28102496      0.33197286      0.26029332       6       0       0       0      13     -0.41941150     -1.32048135     -0.94204372   -154.22614359      0.00440584     -0.00619519      0.00085232     -0.00210138
C               3.19035650     -0.37240808     -0.24933276       6       0       0       0      14      1.55447551      0.72616046     -0.53509021   -153.16806148      0.00730327     -0.00475726      0.00614477      0.00546147
H               4.06336832      1.21068173      0.90422690       1       0       0       0      19      0.88891831     -0.29480641      0.06801097    -16.73879549      0.00478601     -0.00300847      0.00109118     -0.00050473
H               5.30346079     -0.07122323      0.02034942       1       0       0       0      15     -0.29006379      1.08793797      0.75441786    -16.52192554      0.00306580     -0.00019436     -0.00164062     -0.00197117
H               2.26958403      0.15384341      0.02721837       1       0       0       0      14     -0.25383130     -0.23108596     -0.04875392    -15.24151457      0.01606996     -0.01840784     -0.00855180      0.00342253
H               3.39205769     -0.99019906     -1.15201249       1       0       0       0      20     -0.59672097     -0.06134115      0.71541827    -16.96973836      0.00633003      0.01028454     -0.00609010     -0.00609268
9
energy=-1401.4855046887583 cutoff=8.00000000 nneightol=1.20000000 pbc="T T T" Lattice="13.00000000       0.00000000       0.00000000       0.00000000       9.00000000       0.00000000       0.00000000       0.00000000       9.00000000" Properties=species:S:1:pos:R:3:Z:I:1:map_shift:I:3:n_neighb:I:1:force:R:3:local_energy:R:1:gap_var:R:1:gap_variance_gradient:R:3
C               0.19717056      0.01529159     -0.01448440       6       0       0       0      12     -0.83287294     -0.71580716     -0.07123090   -153.41983971      0.00663993      0.01239739      0.01011932      0.00300274
O               0.07874605     -1.08291736     -0.33358090       8       0       0       0      13     -0.45610912     -3.46030486     -1.25026650   -437.58228678      0.00376852      0.00969279      0.01508948      0.00185126
O               0.33353268      1.08522451      0.35103744       8       0       0       0      15     -0.56815621      4.42221548      1.39504583   -437.83264440      0.00696884      0.00235400     -0.01630682     -0.00508788
C               4.23404221      0.37658698      0.12299759       6       0       0       0      13     -0.89922648     -1.59380799     -1.04549068   -154.22165511      0.00464373     -0.00660844      0.00049083     -0.00258553
C               3.13241146     -0.34846064     -0.36245184       6       0       0       0      14      2.03169387      1.32697943     -0.45250120   -153.14884786      0.00721580     -0.00013494      0.00399436      0.00404065
H               4.01809154      1.25328545      0.78228991       1       0       0       0      19      1.03090414     -0.36663349     -0.03242617    -16.74110632      0.00504227     -0.00008538      0.00228390      0.00044194
H               5.24700922     -0.01012219     -0.12968907       1       0       0       0      15      0.08112248      0.93693474      0.65943326    -16.50433254      0.00307210     -0.00025749     -0.00121464     -0.00184693
H               2.22663163      0.19486554     -0.04774103       1       0       0       0      14      0.14257370     -0.49142634     -0.10725076    -15.09597607      0.01629227     -0.02662545     -0.00805967      0.00704601
H               3.31641504     -0.92096484     -1.30789949       1       0       0       0      21     -0.52992944     -0.05814982      0.90468713    -16.93881590      0.00643817      0.00926752     -0.00639677     -0.00686225
9
energy=-1401.3036024376529 cutoff=8.00000000 nneightol=1.20000000 pbc="T T T" Lattice="13.00000000       0.00000000       0.00000000       0.00000000       9.00000000       0.00000000       0.00000000       0.00000000       9.00000000" Properties=species:S:1:pos:R:3:Z:I:1:map_shift:I:3:n_neighb:I:1:force:R:3:local_energy:R:1:gap_var:R:1:gap_variance_gradient:R:3
C               0.22484304      0.00876073     -0.01851952       6       0       0       0      12     -1.28874958      0.29391692      0.30450474   -153.53239129      0.00708970      0.01779585      0.00939379      0.00146709
O               0.11292851     -1.08324759     -0.35286449       8       0       0       0      13     -0.45721212     -3.58213990     -1.38931688   -437.56507539      0.00387940      0.01019824      0.01510203      0.00158009
O               0.36643772      1.07977587      0.36945911       8       0       0       0      15     -1.03374636      3.57832100      1.23051389   -437.78792483      0.00726997      0.00575187     -0.01598529     -0.00579464
C               4.18359890      0.40113122      0.05922776       6       0       0       0      13     -0.82770719     -1.54586988     -0.97091567   -154.17809300      0.00487641     -0.01104906     -0.00055384     -0.00337707
C               3.07971068     -0.33842295     -0.41470741       6       0       0       0      14      2.08266384      1.69884921     -0.45622222   -153.13768560      0.00697058      0.00231925      0.00256657      0.00293839
H               3.97267708      1.27871213      0.72542755       1       0       0       0      19      1.04791070     -0.37441318     -0.07568124    -16.74195373      0.00515919      0.00205677      0.00339447      0.00101479
H               5.19363210      0.03026596     -0.18100474       1       0       0       0      15      0.43327857      0.74971627      0.52284534    -16.49957361      0.00307671     -0.00016840     -0.00062399     -0.00161337
H               2.18749193      0.22116235     -0.08165404       1       0       0       0      15      0.55065436     -0.72247952     -0.20026047    -14.95232585      0.01679160     -0.03488694     -0.00696667      0.01074692
H               3.24790491     -0.87809616     -1.39023483       1       0       0       0      20     -0.50709222     -0.09590092      1.03453252    -16.90857912      0.00659203      0.00798242     -0.00632707     -0.00696220
9
energy=-1401.1265684895880 cutoff=8.00000000 nneightol=1.20000000 pbc="T T T" Lattice="13.00000000       0.00000000       0.00000000       0.00000000       9.00000000       0.00000000       0.00000000       0.00000000       9.00000000" Properties=species:S:1:pos:R:3:Z:I:1:map_shift:I:3:n_neighb:I:1:force:R:3:local_energy:R:1:gap_var:R:1:gap_variance_gradient:R:3
C               0.25155938      0.00292883     -0.02201956       6       0       0       0      12     -1.27566930      1.97849107      0.83066540   -153.59057937      0.00768190      0.02461591      0.00752966      0.00085170
O               0.14518918     -1.08725717     -0.35205614       8       0       0       0      13     -0.39247930     -3.77135360     -1.50902049   -437.56150838      0.00406410      0.01091100      0.01499082      0.00200713
O               0.39804621      1.08761251      0.37515977       8       0       0       0      15     -1.27743104      2.14541079      0.65984438   -437.78488779      0.00760663      0.00901667     -0.01463156     -0.00501145
C               4.13168725      0.33903452      0.25477727       6       0       0       0      13     -0.68319509     -1.35982093     -0.84705432   -154.10228573      0.00518550     -0.01550426     -0.00180023     -0.00521415
C               3.04401243     -0.39592231     -0.26480093       6       0       0       0      14      1.92250942      1.81045853     -0.40934979   -153.14937281      0.00668282      0.00199722      0.00190405      0.00244147
H               3.91335342      1.23360809      0.89450210       1       0       0       0      19      0.91102776     -0.33441547      0.00512103    -16.74325918      0.00520713      0.00221728      0.00367169      0.00109192
H               5.14955350     -0.03954487      0.10687083       1       0       0       0      15      0.63626515      0.55411574      0.41622899    -16.51159783      0.00308070      0.00025614      0.00006178     -0.00130967
H               2.16129128      0.20032051      0.01331118       1       0       0       0      15      0.76432354     -0.86208664     -0.19548906    -14.80340140      0.01745182     -0.04155306     -0.00518249      0.01166683
H               3.24162167     -0.93141573     -1.24104111       1       0       0       0      20     -0.60535114     -0.16079949      1.04905386    -16.87967601      0.00673843      0.00804310     -0.00654373     -0.00652377
9
energy=-1400.9990880453206 cutoff=8.00000000 nneightol=1.20000000 pbc="T T T" Lattice="13.00000000       0.00000000       0.00000000       0.00000000       9.00000000       0.00000000       0.00000000       0.00000000       9.00000000" Properties=species:S:1:pos:R:3:Z:I:1:map_shift:I:3:n_neighb:I:1:force:R:3:local_energy:R:1:gap_var:R:1:gap_variance_gradient:R:3
C               0.27722241     -0.00123322     -0.02461026       6       0       0       0      12     -1.26062073      1.81649736      0.82991933   -153.62632726      0.00847144      0.02860336      0.00790086      0.00011705
O               0.17622772     -1.09564929     -0.36768563       8       0       0       0      13     -0.33635063     -2.85937920     -1.29137098   -437.65133606      0.00424042      0.01044818      0.01372335      0.00203271
O               0.42859616      1.08668781      0.38723306       8       0       0       0      15     -1.21790955      1.33689729      0.42943767   -437.76539435      0.00792798      0.01109717     -0.01378895     -0.00492692
C               4.08182230      0.33044443      0.25522123       6       0       0       0      13     -0.31968613     -1.13657275     -0.67642842   -153.99372516      0.00550044     -0.01730165     -0.00276321     -0.00628714
C               2.99915129     -0.40676299     -0.26621665       6       0       0       0      14      1.68118937      1.79504347     -0.44646510   -153.18580975      0.00647463     -0.00015309      0.00205546      0.00217742
H               3.88459024      1.22499714      0.89381711       1       0       0       0      19      0.65303907     -0.20383031      0.06954989    -16.74603502      0.00526602      0.00199131      0.00344337      0.00083880
H               5.11014597     -0.03276868      0.14497911       1       0       0       0      15      0.63293747      0.37123246      0.29728002    -16.54045672      0.00308740      0.00102492      0.00086721     -0.00090965
H               2.13605822      0.19878494      0.01091760       1       0       0       0      15      0.73492914     -0.80929898     -0.16138768    -14.63617038      0.01824065     -0.04465750     -0.00495953      0.01369573
H               3.17922153     -0.92188407     -1.25489053       1       0       0       0      20     -0.56752801     -0.31058935      0.94946527    -16.85383334      0.00678596      0.00894729     -0.00647858     -0.00673801
9
energy=-1400.8852589503733 cutoff=8.00000000 nneightol=1.20000000 pbc="T T T" Lattice="13.00000000       0.00000000       0.00000000       0.00000000       9.00000000       0.00000000       0.00000000       0.00000000       9.00000000" Properties=species:S:1:pos:R:3:Z:I:1:map_shift:I:3:n_neighb:I:1:force:R:3:local_energy:R:1:gap_var:R:1:gap_variance_gradient:R:3
C               0.30117370     -0.00171992     -0.02567978       6       0       0       0      12     -1.05860066      1.71112634      0.81101174   -153.64186353      0.00924927      0.02832925      0.00764773     -0.00097015
O               0.20661002     -1.10750803     -0.36244232       8       0       0       0      14     -0.43181793     -1.84435414     -0.93584577   -437.77379660      0.00440515      0.00971366      0.01213583      0.00163109
O               0.45784936      1.09956903      0.38181567       8       0       0       0      15     -1.17716988      0.29878669      0.07845670   -437.77660839      0.00815213      0.01332373     -0.01257500     -0.00444643
C               4.03212358      0.33165079      0.24739293       6       0       0       0      14      0.36293278     -0.87482351     -0.43155263   -153.85059637      0.00575001     -0.01776864     -0.00319200     -0.00700854
C               2.95588128     -0.41387197     -0.26235553       6       0       0       0      14      1.43192763      1.60284825     -0.51387546   -153.23445171      0.00642165     -0.00321412      0.00276132      0.00201100
H               3.86376573      1.23531350      0.87029028       1       0       0       0      19      0.39836070     -0.01474020      0.16800935    -16.74684864      0.00533111      0.00240746      0.00318945      0.00059512
H               5.07734948     -0.01507133      0.18119485       1       0       0       0      15      0.39369421      0.19955598      0.15034502    -16.57972453      0.00310206      0.00223450      0.00172446     -0.00041183
H               2.11450522      0.19899767      0.00578310       1       0       0       0      15      0.49654384     -0.60410915     -0.05305196    -14.45847352      0.01909391     -0.04462024     -0.00540590      0.01515774
H               3.11131053     -0.92828129     -1.24853957       1       0       0       0      20     -0.41587069     -0.47429026      0.72650301    -16.82289567      0.00670836      0.00959439     -0.00628590     -0.00655800
9
energy=-1400.7360285670650 cutoff=8.00000000 nneightol=1.20000000 pbc="T T T" Lattice="13.00000000       0.00000000       0.00000000       0.00000000       9.00000000       0.00000000       0.00000000       0.00000000       9.00000000" Properties=species:S:1:pos:R:3:Z:I:1:map_shift:I:3:n_neighb:I:1:force:R:3:local_energy:R:1:gap_var:R:1:gap_variance_gradient:R:3
C               0.32333459      0.00066114     -0.02470487       6       0       0       0      12     -0.77674457      1.54440138      0.75060051   -153.64567048      0.00993188      0.02571416      0.00712838     -0.00209595
O               0.23636499     -1.12112349     -0.34290898       8       0       0       0      14     -0.68173947     -0.70807318     -0.49751917   -437.91670943      0.00455305      0.00955996      0.01029566      0.00067725
O               0.48601318      1.12146974      0.36612442       8       0       0       0      14     -1.19943833     -0.82986559     -0.28990233   -437.80257936      0.00833648      0.01591759     -0.01149712     -0.00401465
C               3.98310036      0.33842775      0.23538637       6       0       0       0      14      1.34948499     -0.50349777     -0.09741318   -153.67130300      0.00592695     -0.01868913     -0.00325812     -0.00752490
C               2.91410205     -0.41778414     -0.25427287       6       0       0       0      14      1.18349047      1.24565694     -0.59276436   -153.28032916      0.00653921     -0.00621084      0.00362851      0.00181032
H               3.84813299      1.25819842      0.83340030       1       0       0       0      18      0.11269247      0.16890229      0.23872591    -16.74390381      0.00540732      0.00362978      0.00307372      0.00053000
H               5.04897587      0.00999954      0.21633436       1       0       0       0      13      0.00655116      0.00503549     -0.02895094    -16.61644840      0.00312816      0.00378231      0.00262838      0.00012672
H               2.09385302      0.20151287      0.00133385       1       0       0       0      15      0.17102310     -0.30592870      0.08923960    -14.27704526      0.02005014     -0.04242964     -0.00618012      0.01610271
H               3.03941561     -0.94621510     -1.22699804       1       0       0       0      20     -0.16531982     -0.61663087      0.42798395    -16.78203968      0.00657818      0.00872581     -0.00581930     -0.00561150
9
energy=-1400.5254704416059 cutoff=8.00000000 nneightol=1.20000000 pbc="T T T" Lattice="13.00000000       0.00000000       0.00000000       0.00000000       9.00000000       0.00000000       0.00000000       0.00000000       9.00000000" Properties=species:S:1:pos:R:3:Z:I:1:map_shift:I:3:n_neighb:I:1:force:R:3:local_energy:R:1:gap_var:R:1:gap_variance_gradient:R:3
C               0.34476715      0.00533023     -0.02258239       6       0       0       0      13     -0.58967597      0.72789697      0.49977609   -153.65687047      0.01056221      0.02217245      0.00748529     -0.00331097
O               0.26523691     -1.13503835     -0.32509129       8       0       0       0      14     -1.03345771      0.67387573      0.00583266   -438.06557259      0.00470258      0.01041028      0.00828408     -0.00089178
O               0.51332551      1.14199224      0.34783177       8       0       0       0      14     -1.22941108     -1.60524138     -0.49014170   -437.82209029      0.00855647      0.01855040     -0.01120284     -0.00432456