9
energy=-1401.8498565491093 cutoff=8.00000000 nneightol=1.20000000 pbc="T T T" Lattice="13.00000000       0.00000000       0.00000000       0.00000000       9.00000000       0.00000000       0.00000000       0.00000000       9.00000000" Properties=species:S:1:pos:R:3:Z:I:1:map_shift:I:3:n_neighb:I:1:force:R:3:local_energy:R:1:gap_var:R:1:gap_variance_gradient:R:3
C               0.00005179      0.00003613     -0.00008682       6       0       0       0      12     -0.71616740      0.08149946      0.07809209   -152.36801565      0.00469919      0.00753098     -0.00155187     -0.00082503
O              -0.13249936     -1.12387930     -0.32607516       8       0       0       0      14     -0.00977908      0.19278975      0.11863108   -437.72026183      0.00376144     -0.00437837      0.00314623     -0.00002105
O               0.13246048      1.12385218      0.32614034       8       0       0       0      14      0.60777928     -0.29930867     -0.09183241   -438.43012828      0.00381012      0.00944956     -0.00857660     -0.00114853
C               4.52496189      0.32653158      0.25008054       6       0       0       0      15      0.57584140      0.68705888      0.43457017   -153.99792902      0.00306717      0.00582900     -0.00082158     -0.00063726
C               3.47503812     -0.32653161     -0.25008061       6       0       0       0      14     -0.90079627     -1.10620558     -0.51939988   -153.07284990      0.00666219     -0.01240857      0.00762508      0.00899194
H               4.40543032      1.17877744      0.91904030       1       0       0       0      19     -0.24543082      0.30760755      0.29124838    -16.62958607      0.00316126     -0.00051773     -0.00123813     -0.00239676
H               5.54824592      0.03641898      0.01166389       1       0       0       0      15      0.55674287      0.06718716     -0.00289928    -16.58860884      0.00304409     -0.00057028      0.00009126     -0.00015559
H               2.45175452     -0.03641814     -0.01166331       1       0       0       0      14      0.27576879      0.09625601     -0.16517842    -16.04784753      0.01509267     -0.00624351      0.00130748     -0.00380807
H               3.59456914     -1.17877784     -0.91904006       1       0       0       0      19     -0.14395877     -0.02688457     -0.14323174    -16.99462942      0.00546950      0.00130894      0.00001814      0.00000035
9
energy=-1401.8236617576438 cutoff=8.00000000 nneightol=1.20000000 pbc="T T T" Lattice="13.00000000       0.00000000       0.00000000       0.00000000       9.00000000       0.00000000       0.00000000       0.00000000       9.00000000" Properties=species:S:1:pos:R:3:Z:I:1:map_shift:I:3:n_neighb:I:1:force:R:3:local_energy:R:1:gap_var:R:1:gap_variance_gradient:R:3
C               0.03623791      0.00729190     -0.00192878       6       0       0       0      11     -0.79931721     -1.38963769     -0.29370005   -152.51655912      0.00492414      0.00719811      0.00059513     -0.00014546
O              -0.09793585     -1.11454172     -0.31922593       8       0       0       0      13      0.18957538     -0.49686825     -0.15197563   -437.71313410      0.00367895     -0.00249127      0.00577176      0.00101024
O               0.16477460      1.11024700      0.32076608       8       0       0       0      14      1.04821427      1.80936749      0.49725497   -438.33782575      0.00438538      0.01539489     -0.01369129     -0.00252697
C               4.47344579      0.32733879      0.25055692       6       0       0       0      13      1.50747836     -0.43548547     -0.45732150   -154.06029974      0.00309680      0.00243278     -0.00010272     -0.00027194
C               3.41604524     -0.33970189     -0.24663061       6       0       0       0      14     -0.69883506     -0.49156592     -0.21614061   -153.08629259      0.00664274     -0.01628724      0.00827448      0.00891506
H               4.33410273      1.17453694      0.89513434       1       0       0       0      19     -0.01697786      0.72679626      0.67296192    -16.63403070      0.00343039     -0.00252996     -0.00115895     -0.00248879
H               5.51777869     -0.00924150     -0.00755635       1       0       0       0      15     -0.52300829      0.67517771      0.47141162    -16.61309264      0.00302716      0.00063506     -0.00081160     -0.00084299
H               2.42931356     -0.00168692      0.00568026       1       0       0       0      14     -0.45166689      0.15772515     -0.08366009    -15.86309404      0.01544298     -0.00744234     -0.00024849     -0.00425064
H               3.55438686     -1.13533610     -0.95259958       1       0       0       0      19     -0.25546271     -0.55550928     -0.43883062    -16.99933308      0.00571070      0.00308996      0.00137167      0.00060148
9
energy=-1401.7253674640410 cutoff=8.00000000 nneightol=1.20000000 pbc="T T T" Lattice="13.00000000       0.00000000       0.00000000       0.00000000       9.00000000       0.00000000       0.00000000       0.00000000       9.00000000" Properties=species:S:1:pos:R:3:Z:I:1:map_shift:I:3:n_neighb:I:1:force:R:3:local_energy:R:1:gap_var:R:1:gap_variance_gradient:R:3
C               0.07149641      0.01355648     -0.00352211       6       0       0       0      11     -0.78644626     -2.76285841     -0.65471470   -152.67349610      0.00524062      0.00609577      0.00391530      0.00100445
O              -0.06268844     -1.10560951     -0.31662111       8       0       0       0      13      0.20944975     -1.17052716     -0.40809740   -437.70374393      0.00360147      0.00122777      0.00891395      0.00196075
O               0.19805930      1.09718800      0.32062584       8       0       0       0      14      1.27059863      3.84300564      1.08782701   -438.17542549      0.00514958      0.01743299     -0.01811638     -0.00404660
C               4.42228281      0.33001284      0.25394830       6       0       0       0      13      1.94538810     -1.39559572     -1.13340410   -154.11468774      0.00328837     -0.00399527      0.00070528     -0.00030681
C               3.35716452     -0.35202079     -0.24585095       6       0       0       0      14     -0.24872438      0.00403029      0.03237354   -153.14546430      0.00676699     -0.01793999      0.00907224      0.00818450
H               4.25755879      1.17736405      0.87934743       1       0       0       0      19      0.13048739      0.91469540      0.85952223    -16.64857987      0.00377798     -0.00229068     -0.00072910     -0.00203476
H               5.48138408     -0.04900127     -0.01449527       1       0       0       0      15     -1.22129451      1.16720085      0.81749490    -16.59924328      0.00304709      0.00165687     -0.00167126     -0.00154052
H               2.40199081      0.03418747      0.01359229       1       0       0       0      14     -1.01394937      0.25812150      0.01474377    -15.67442630      0.01578602     -0.00770498     -0.00329710     -0.00370597
H               3.51762198     -1.09420568     -0.99101686       1       0       0       0      19     -0.28550936     -0.85807239     -0.61574525    -16.99030046      0.00592833      0.00551752      0.00120707      0.00048496
9
energy=-1401.6166217697096 cutoff=8.00000000 nneightol=1.20000000 pbc="T T T" Lattice="13.00000000       0.00000000       0.00000000       0.00000000       9.00000000       0.00000000       0.00000000       0.00000000       9.00000000" Properties=species:S:1:pos:R:3:Z:I:1:map_shift:I:3:n_neighb:I:1:force:R:3:local_energy:R:1:gap_var:R:1:gap_variance_gradient:R:3
C               0.10543378      0.01783904     -0.00539828       6       0       0       0      11     -0.73295261     -4.11986234     -1.07159746   -152.86467606      0.00565475      0.00690601      0.00845646      0.00296668
O              -0.02687552     -1.09733561     -0.32029309       8       0       0       0      13     -0.16893787     -1.87117344     -0.65955203   -437.68312979      0.00357891      0.00597891      0.01237534      0.00280169
O               0.23137509      1.08339737      0.32623864       8       0       0       0      14      1.22667083      5.89501326      1.74339953   -437.98127437      0.00589694      0.01377607     -0.02139042     -0.00563950
C               4.37193075      0.33400140      0.25967645       6       0       0       0      13      1.55890495     -1.96045726     -1.49178531   -154.16349173      0.00367590     -0.00826738      0.00109539     -0.00069649
C               3.29852766     -0.36267542     -0.24794067       6       0       0       0      14      0.86079754      0.38174795      0.12073417   -153.20480485      0.00701163     -0.01732076      0.00934109      0.00705658
H               4.17646477      1.18736083      0.87806708       1       0       0       0      19      0.34480003      0.70957187      0.75320239    -16.67790223      0.00414557     -0.00310409     -0.00050662     -0.00159427
H               5.43499088     -0.07461683     -0.01124382       1       0       0       0      15     -1.49144222      1.46849136      1.01110646    -16.56676791      0.00307751      0.00227109     -0.00232066     -0.00212580
H               2.36602860      0.07044799      0.01631369       1       0       0       0      14     -1.24243483      0.30566820      0.08420313    -15.49474762      0.01596719     -0.00801554     -0.00668443     -0.00215859
H               3.48386889     -1.05421111     -1.04034764       1       0       0       0      19     -0.35540584     -0.80899959     -0.48971087    -16.97982720      0.00609661      0.00777568     -0.00036616     -0.00061029
9
energy=-1401.5302158623836 cutoff=8.00000000 nneightol=1.20000000 pbc="T T T" Lattice="13.00000000       0.00000000       0.00000000       0.00000000       9.00000000       0.00000000       0.00000000       0.00000000       9.00000000" Properties=species:S:1:pos:R:3:Z:I:1:map_shift:I:3:n_neighb:I:1:force:R:3:local_energy:R:1:gap_var:R:1:gap_variance_gradient:R:3
C               0.13751780      0.02009807     -0.00771828       6       0       0       0      11     -0.65207140     -3.77790811     -0.95752075   -153.09185558      0.00610883      0.00699466      0.01093625      0.00393731
O               0.00909428     -1.09023081     -0.30540094       8       0       0       0      13     -0.46613477     -3.01583427     -0.99078034   -437.61931648      0.00363253      0.00924579      0.01573774      0.00315550
O               0.26540774      1.08301730      0.31683574       8       0       0       0      14      0.87713665      6.74867884      1.93506777   -437.85658423      0.00647592      0.00843011     -0.02187418     -0.00575773
C               4.32301057      0.34902956      0.25761337       6       0       0       0      13      0.46616165     -2.18448981     -1.54505134   -154.20320577      0.00411172     -0.00804445      0.00115692     -0.00129475
C               3.24119750     -0.37151679     -0.24469337       6       0       0       0      14      1.83020703      0.80736472      0.08371820   -153.21364224      0.00727916     -0.01273692      0.00828299      0.00547307
H               4.09581673      1.22668320      0.86280412       1       0       0       0      19      0.73869602      0.22016458      0.42501721    -16.70787601      0.00458967     -0.00466140      0.00038634     -0.00096070
H               5.37663614     -0.07833254      0.00013667       1       0       0       0      15     -1.34346765      1.57308842      1.02949212    -16.53276839      0.00309602      0.00220842     -0.00264245     -0.00242324
H               2.32036605      0.11316804      0.01544245       1       0       0       0      14     -0.97172103      0.15263847      0.06653558    -15.33797499      0.01597689     -0.01113137     -0.00904520      0.00058806
H               3.45009935     -1.03405893     -1.07630632       1       0       0       0      19     -0.47880650     -0.52370284     -0.04647845    -16.96699218      0.00622767      0.00969518     -0.00293841     -0.00271752
9
energy=-1401.4169408225594 cutoff=8.00000000 nneightol=1.20000000 pbc="T T T" Lattice="13.00000000       0.00000000       0.00000000       0.00000000       9.00000000       0.00000000       0.00000000       0.00000000       9.00000000" Properties=species:S:1:pos:R:3:Z:I:1:map_shift:I:3:n_neighb:I:1:force:R:3:local_energy:R:1:gap_var:R:1:gap_variance_gradient:R:3
C               0.16818982      0.01925811     -0.01085597       6       0       0       0      11     -0.74773177     -3.11672293     -0.80816967   -153.31183002      0.00652545      0.00876181      0.01198688      0.00419927
O               0.04440527     -1.08532600     -0.30530532       8       0       0       0      13     -0.57526176     -3.77334500     -1.23157573   -437.56214501      0.00372439      0.01020344      0.01733252      0.00295393
O               0.29955189      1.07996506      0.31971371       8       0       0       0      15      0.32142095      6.97508434      2.01472250   -437.76890070      0.00684779      0.00217472     -0.02093393     -0.00580358
C               4.27535244      0.35455609      0.25764921       6       0       0       0      13     -0.85959042     -2.08580510     -1.40294373   -154.22078702      0.00446008     -0.00583029      0.00098955     -0.00201589
C               3.18587783     -0.38172520     -0.24475078       6       0       0       0      14      2.36980325      1.39380000      0.01166443   -153.18133229      0.00740928     -0.00536323      0.00562191      0.00403982
H               4.02178656      1.25486916      0.86443005       1       0       0       0      19      1.12444527     -0.37034203      0.03357715    -16.72150983      0.00496094     -0.00236766      0.00214195      0.00028551
H               5.30733375     -0.07526506      0.01889237       1       0       0       0      15     -0.76039117      1.42706634      0.92057491    -16.49781765      0.00310117      0.00146756     -0.00250842     -0.00244523
H               2.26679674      0.15231801      0.01556520       1       0       0       0      14     -0.26632276     -0.28051530     -0.06031179    -15.20639478      0.01602989     -0.01998532     -0.00885734      0.00409146
H               3.41180942     -1.01605010     -1.12170485       1       0       0       0      20     -0.60637159     -0.16922032      0.52246193    -16.94622353      0.00635806      0.01093897     -0.00577312     -0.00530529
9
energy=-1401.2395496783588 cutoff=8.00000000 nneightol=1.20000000 pbc="T T T" Lattice="13.00000000       0.00000000       0.00000000       0.00000000       9.00000000       0.00000000       0.00000000       0.00000000       9.00000000" Properties=species:S:1:pos:R:3:Z:I:1:map_shift:I:3:n_neighb:I:1:force:R:3:local_energy:R:1:gap_var:R:1:gap_variance_gradient:R:3
C               0.19717056      0.01529159     -0.01448440       6       0       0       0      11     -0.98915617     -1.36355392     -0.32516892   -153.49935039      0.00694935      0.01298073      0.01152173      0.00363130
O               0.07874605     -1.08291736     -0.30503801       8       0       0       0      13     -0.57752316     -4.50652335     -1.44120566   -437.49712982      0.00382899      0.00987689      0.01782733      0.00238633
O               0.33353268      1.08180326      0.32299680       8       0       0       0      15     -0.43936194      6.15367864      1.76618536   -437.72396494      0.00711632      0.00338637     -0.02069013     -0.00609274
C               4.22816322      0.35601645      0.25590070       6       0       0       0      13     -1.97527475     -1.70422909     -1.08307727   -154.21214322      0.00469030     -0.00542961      0.00066990     -0.00288011
C               3.13297772     -0.39269471     -0.24397754       6       0       0       0      15      2.40689998      1.98421989     -0.10396942   -153.13032480      0.00735067      0.00182928      0.00253880      0.00303994
H               3.95915828      1.27767530      0.86607201       1       0       0       0      19      1.36148569     -0.82585606     -0.27230719    -16.71830557      0.00517610      0.00008873      0.00390425      0.00129592
H               5.23290428     -0.06536952      0.04455475       1       0       0       0      15      0.21438755      1.03917104      0.69432548    -16.45101907      0.00310972      0.00028002     -0.00191789     -0.00220954
H               2.21110333      0.18866744      0.01653261       1       0       0       0      15      0.67549536     -0.88967299     -0.26331765    -15.09272599      0.01647030     -0.03355643     -0.00635724      0.00799193
H               3.36687361     -1.00466573     -1.16189677       1       0       0       0      20     -0.67695256      0.11276585      1.02853527    -16.91458588      0.00653177      0.01054403     -0.00749675     -0.00716303
9
energy=-1400.9872451729188 cutoff=8.00000000 nneightol=1.20000000 pbc="T T T" Lattice="13.00000000       0.00000000       0.00000000       0.00000000       9.00000000       0.00000000       0.00000000       0.00000000       9.00000000" Properties=species:S:1:pos:R:3:Z:I:1:map_shift:I:3:n_neighb:I:1:force:R:3:local_energy:R:1:gap_var:R:1:gap_variance_gradient:R:3
C               0.22484304      0.00876073     -0.01851952       6       0       0       0      12     -1.33445078      1.08023330      0.39059399   -153.61422105      0.00743938      0.01836728      0.00999422      0.00235486
O               0.11292851     -1.08324759     -0.30555895       8       0       0       0      13     -0.64137326     -5.23307601     -1.66302336   -437.44003250      0.00396937      0.01048182      0.01820313      0.00204963
O               0.36643772      1.08835277      0.32743803       8       0       0       0      15     -1.03696995      4.51335669      1.26496495   -437.70429922      0.00756178      0.00977497     -0.02073284     -0.00643149
C               4.18014563      0.35781121      0.25387772       6       0       0       0      13     -2.67768928     -1.17933939     -0.73973842   -154.17032246      0.00493323     -0.00843948     -0.00047688     -0.00404297
C               3.08318135     -0.40086031     -0.24245497       6       0       0       0      15      2.17663321      2.48168727     -0.20637859   -153.09149693      0.00713268      0.00629444      0.00018744      0.00257077
H               3.90953648      1.29257194      0.86612606       1       0       0       0      19      1.41674882     -1.00985554     -0.40311767    -16.71117512      0.00527974      0.00166370      0.00514615      0.00180757
H               5.16325054     -0.04722760      0.07639818       1       0       0       0      15      1.29267516      0.53600623      0.44463227    -16.39907944      0.00313097     -0.00099002     -0.00092623     -0.00182827
H               2.16125947      0.21856229      0.01803009       1       0       0       0      15      1.53628164     -1.43066725     -0.45262555    -14.97797667      0.01732813     -0.04650348     -0.00330976      0.01159334
H               3.31581147     -0.99148755     -1.19483380       1       0       0       0      21     -0.73185556      0.24165469      1.36469237    -16.87864178      0.00675282      0.00935077     -0.00808523     -0.00807343
9
energy=-1400.7881421384104 cutoff=8.00000000 nneightol=1.20000000 pbc="T T T" Lattice="13.00000000       0.00000000       0.00000000       0.00000000       9.00000000       0.00000000       0.00000000       0.00000000       9.00000000" Properties=species:S:1:pos:R:3:Z:I:1:map_shift:I:3:n_neighb:I:1:force:R:3:local_energy:R:1:gap_var:R:1:gap_variance_gradient:R:3
C               0.25155938      0.00292883     -0.02201956       6       0       0       0      12     -1.40032778      2.35437252      0.82932216   -153.66315703      0.00810901      0.02587024      0.00962741      0.00151070
O               0.14518918     -1.08725717     -0.31763172       8       0       0       0      13     -0.53829229     -5.05488121     -1.71903852   -437.45913139      0.00414218      0.01112976      0.01770080      0.00204387
O               0.39804621      1.09229287      0.34017244       8       0       0       0      15     -1.23450844      3.06738020      0.86643449   -437.68710572      0.00807418      0.01388172     -0.01978004     -0.00649769
C               4.13067132      0.35311634      0.25233200       6       0       0       0      13     -3.00834400     -0.83417557     -0.56029390   -154.09988246      0.00525100     -0.01239557     -0.00201256     -0.00523424
C               3.03570284     -0.40856379     -0.24537510       6       0       0       0      15      1.84159497      2.71834820     -0.30389410   -153.09425522      0.00682363      0.00690609     -0.00079086      0.00247935
H               3.87503259      1.28543282      0.86923609       1       0       0       0      19      1.21982789     -0.91831360     -0.36764312    -16.71163825      0.00533209      0.00109895      0.00484204      0.00141513
H               5.10768358     -0.03167690      0.10919659       1       0       0       0      15      1.98604850      0.14576858      0.28269414    -16.38174534      0.00314407     -0.00170485      0.00022520     -0.00143916
H               2.12482724      0.23148220      0.01804916       1       0       0       0      15      1.94003081     -1.67745355     -0.54689935    -14.84023256      0.01824861     -0.05383857     -0.00158293      0.01438362
H               3.25681210     -0.97095495     -1.22730595       1       0       0       0      21     -0.80602965      0.19895443      1.51931819    -16.85099416      0.00693616      0.00905222     -0.00822907     -0.00866157
9
energy=-1400.7437995630269 cutoff=8.00000000 nneightol=1.20000000 pbc="T T T" Lattice="13.00000000       0.00000000       0.00000000       0.00000000       9.00000000       0.00000000       0.00000000       0.00000000       9.00000000" Properties=species:S:1:pos:R:3:Z:I:1:map_shift:I:3:n_neighb:I:1:force:R:3:local_energy:R:1:gap_var:R:1:gap_variance_gradient:R:3
C               0.27722241     -0.00123322     -0.02461026       6       0       0       0      12     -1.30187930      2.91798697      1.06418064   -153.67614150      0.00883515      0.02858240      0.00845193      0.00007795
O               0.17622772     -1.09564929     -0.32641111       8       0       0       0      13     -0.46767665     -4.21733947     -1.54894314   -437.55084245      0.00431902      0.01082753      0.01625956      0.00205785
O               0.42859616      1.10003713      0.34897518       8       0       0       0      15     -1.22001646      1.57418584      0.42902382   -437.71161378      0.00835408      0.01483652     -0.01701690     -0.00568587
C               4.07968578      0.34795302      0.25231958       6       0       0       0      13     -2.36440760     -0.80795321     -0.53987957   -154.00618972      0.00555329     -0.01450658     -0.00273314     -0.00603851
C               2.99075392     -0.41535228     -0.24379025       6       0       0       0      14      1.59264136      2.56261321     -0.47407778   -153.14929915      0.00654014      0.00364737     -0.00002378      0.00259192
H               3.85414667      1.27157113      0.86387294       1       0       0       0      19      0.90552857     -0.54261141     -0.13864846    -16.71793390      0.00535286      0.00146167      0.00399067      0.00082308
H               5.07140144     -0.01758164      0.14846950       1       0       0       0      15      1.90305700      0.00669653      0.21654705    -16.43287265      0.00313097     -0.00116946      0.00122836     -0.00104670
H               2.10591108      0.22867165      0.01447664       1       0       0       0      15      1.71862149     -1.51727186     -0.45931772    -14.66749985      0.01886588     -0.05349933     -0.00205407      0.01606898
H               3.19181850     -0.95614247     -1.24040660       1       0       0       0      20     -0.76586841      0.02369341      1.45111516    -16.83140658      0.00695466      0.00981989     -0.00810264     -0.00884871
9
energy=-1400.7671127359895 cutoff=8.00000000 nneightol=1.20000000 pbc="T T T" Lattice="13.00000000       0.00000000       0.00000000       0.00000000       9.00000000       0.00000000       0.00000000       0.00000000       9.00000000" Properties=species:S:1:pos:R:3:Z:I:1:map_shift:I:3:n_neighb:I:1:force:R:3:local_energy:R:1:gap_var:R:1:gap_variance_gradient:R:3
C               0.30117370     -0.00171992     -0.02567978       6       0       0       0      12     -1.01539947      2.89706415      1.08974444   -153.66909631      0.00942912      0.02758433      0.00678652     -0.00163936
O               0.20661002     -1.10750803     -0.32588453       8       0       0       0      14     -0.48816771     -2.87163020     -1.15625797   -437.70395848      0.00446331      0.01002825      0.01392656      0.00171371
O               0.45784936      1.11488274      0.34922954       8       0       0       0      15     -1.17624926      0.11122536     -0.00230389   -437.77083636      0.00832707      0.01467103     -0.01346141     -0.00450105
C               4.02791850      0.34835892      0.24603708       6       0       0       0      14     -0.76962888     -0.97788917     -0.53797749   -153.86937367      0.00577578     -0.01603047     -0.00280174     -0.00668451
C               2.94773302     -0.41821795     -0.24064601       6       0       0       0      14      1.58220893      1.91768261     -0.71755494   -153.23724468      0.00643701     -0.00240620      0.00241002      0.00263807
H               3.84390364      1.26439506      0.84106685       1       0       0       0      18      0.49524523      0.05165816      0.22030335    -16.72133113      0.00536384      0.00252772      0.00293632      0.00027831
H               5.05240834      0.00209395      0.18630049       1       0       0       0      14      1.09180127      0.01500281      0.13631219    -16.53130531      0.00311721      0.00068516      0.00205782     -0.00052741
H               2.10152438      0.21654280      0.00360296       1       0       0       0      15      0.84958978     -0.88641111     -0.16543418    -14.45585840      0.01924321     -0.04727221     -0.00452849      0.01669437
H               3.12031360     -0.94979964     -1.23389534       1       0       0       0      20     -0.56939990     -0.25670260      1.13316849    -16.80810838      0.00678227      0.01021241     -0.00732561     -0.00797214
9
energy=-1400.6713367677132 cutoff=8.00000000 nneightol=1.20000000 pbc="T T T" Lattice="13.00000000       0.00000000       0.00000000       0.00000000       9.00000000       0.00000000       0.00000000       0.00000000       9.00000000" Properties=species:S:1:pos:R:3:Z:I:1:map_shift:I:3:n_neighb:I:1:force:R:3:local_energy:R:1:gap_var:R:1:gap_variance_gradient:R:3
C               0.32333459      0.00066114     -0.02470487       6       0       0       0      12     -0.64116281      2.46911119      0.96185975   -153.65490094      0.00986817      0.02559199      0.00512985     -0.00319333
O               0.23636499     -1.12112349     -0.31777984       8       0       0       0      14     -0.68005546     -1.27933343     -0.63157411   -437.88524833      0.00458932      0.00974070      0.01112197      0.00081345
O               0.48601318      1.13421206      0.34345540       8       0       0       0      14     -1.19944161     -1.19103274     -0.36637640   -437.83544729      0.00815452      0.01530025     -0.01061553     -0.00366002
C               3.97651671      0.35118746      0.23703825       6       0       0       0      14      1.32363874     -1.00111437     -0.37282071   -153.66601316      0.00594652     -0.01796035     -0.00283881     -0.00742687
C               2.90650063     -0.41917615     -0.23533360       6       0       0       0      14      1.89716263      0.83480358     -0.93065961   -153.30766852      0.00661651     -0.00938849      0.00561485      0.00228691
H               3.83962055      1.26564001      0.81003414       1       0       0       0      18      0.01332135      0.67419637      0.55378506    -16.72037420      0.00539858      0.00402469      0.00212434      0.00005054
H               5.04274718      0.02653828      0.22615821       1       0       0       0      13     -0.00742638     -0.04342060     -0.05216048    -16.61881216      0.00313399      0.00332728      0.00283785      0.00014733
H               2.10297036      0.19996179     -0.00800591       1       0       0       0      15     -0.48059203      0.12281415      0.25219069    -14.21739537      0.01975412     -0.03924437     -0.00775821      0.01643666
H               3.04424854     -0.95247194     -1.20976818       1       0       0       0      20     -0.22544444     -0.58602416      0.58575581    -16.76547681      0.00658914      0.00860830     -0.00561631     -0.00545467
9
energy=-1400.3874602716110 cutoff=8.00000000 nneightol=1.20000000 pbc="T T T" Lattice="13.00000000       0.00000000       0.00000000       0.00000000       9.00000000       0.00000000       0.00000000       0.00000000       9.00000000" Properties=species:S:1:pos:R:3:Z:I:1:map_shift:I:3:n_neighb:I:1:force:R:3:local_energy:R:1:gap_var:R:1:gap_variance_gradient:R:3
C               0.34476715      0.00533023     -0.02258239       6       0       0       0      12     -0.38763360      1.20978483      0.60868503   -153.64415900      0.01031672      0.02417005      0.00476436     -0.00413293
O               0.26523691     -1.13503835     -0.32036504       8       0       0       0      14     -1.00705111      0.68846644     -0.01073936   -438.06883246      0.00473578      0.01079937      0.00792856     -0.00060335
O               0.51332551      1.14831350      0.34589890       8       0       0       0      14     -1.24400656     -2.07303940     -0.62196465   -437.87464891      0.00807589      0.01719780     -0.00938616     -0.00348732