9
energy=-1401.8498565491093 cutoff=8.00000000 nneightol=1.20000000 pbc="T T T" Lattice="13.00000000       0.00000000       0.00000000       0.00000000       9.00000000       0.00000000       0.00000000       0.00000000       9.00000000" Properties=species:S:1:pos:R:3:Z:I:1:map_shift:I:3:n_neighb:I:1:force:R:3:local_energy:R:1:gap_var:R:1:gap_variance_gradient:R:3
C               0.00005179      0.00003613     -0.00008682       6       0       0       0      12     -0.71616740      0.08149946      0.07809209   -152.36801565      0.00469919      0.00753098     -0.00155187     -0.00082503
O              -0.13249936     -1.12387930     -0.32607516       8       0       0       0      14     -0.00977908      0.19278975      0.11863108   -437.72026183      0.00376144     -0.00437837      0.00314623     -0.00002105
O               0.13246048      1.12385218      0.32614034       8       0       0       0      14      0.60777928     -0.29930867     -0.09183241   -438.43012828      0.00381012      0.00944956     -0.00857660     -0.00114853
C               4.52496189      0.32653158      0.25008054       6       0       0       0      15      0.57584140      0.68705888      0.43457017   -153.99792902      0.00306717      0.00582900     -0.00082158     -0.00063726
C               3.47503812     -0.32653161     -0.25008061       6       0       0       0      14     -0.90079627     -1.10620558     -0.51939988   -153.07284990      0.00666219     -0.01240857      0.00762508      0.00899194
H               4.40543032      1.17877744      0.91904030       1       0       0       0      19     -0.24543082      0.30760755      0.29124838    -16.62958607      0.00316126     -0.00051773     -0.00123813     -0.00239676
H               5.54824592      0.03641898      0.01166389       1       0       0       0      15      0.55674287      0.06718716     -0.00289928    -16.58860884      0.00304409     -0.00057028      0.00009126     -0.00015559
H               2.45175452     -0.03641814     -0.01166331       1       0       0       0      14      0.27576879      0.09625601     -0.16517842    -16.04784753      0.01509267     -0.00624351      0.00130748     -0.00380807
H               3.59456914     -1.17877784     -0.91904006       1       0       0       0      19     -0.14395877     -0.02688457     -0.14323174    -16.99462942      0.00546950      0.00130894      0.00001814      0.00000035
9
energy=-1401.8726678619851 cutoff=8.00000000 nneightol=1.20000000 pbc="T T T" Lattice="13.00000000       0.00000000       0.00000000       0.00000000       9.00000000       0.00000000       0.00000000       0.00000000       9.00000000" Properties=species:S:1:pos:R:3:Z:I:1:map_shift:I:3:n_neighb:I:1:force:R:3:local_energy:R:1:gap_var:R:1:gap_variance_gradient:R:3
C               0.03623791      0.00729190     -0.00192878       6       0       0       0      11     -0.75182975     -1.10377568     -0.23160611   -152.44819982      0.00490300      0.00676405     -0.00016321      0.00007727
O              -0.09793585     -1.11454172     -0.34410261       8       0       0       0      13      0.26079797      0.25814172      0.06651358   -437.75108279      0.00368820     -0.00243824      0.00418311      0.00070075
O               0.16477460      1.11284955      0.34541868       8       0       0       0      14      0.91222032      0.76909491      0.21147508   -438.38952966      0.00430091      0.01510107     -0.01165398     -0.00192753
C               4.47704780      0.35020432      0.24245725       6       0       0       0      13      0.60579881      0.58720216      0.36461766   -154.04007585      0.00309673      0.00363076     -0.00094514     -0.00046604
C               3.42758177     -0.31985766     -0.24992949       6       0       0       0      14     -1.02656131     -1.13942150     -0.59328903   -153.05448638      0.00657797     -0.01477167      0.00787533      0.00997989
H               4.34472388      1.21264662      0.89776406       1       0       0       0      19     -0.13811618      0.24901561      0.25080420    -16.66486592      0.00338665     -0.00229801     -0.00137949     -0.00252665
H               5.50384208      0.05015352      0.01501643       1       0       0       0      15      0.47573992      0.18724850      0.06858842    -16.59085123      0.00303875     -0.00090164     -0.00015270     -0.00027910
H               2.41911163     -0.01427425      0.00628183       1       0       0       0      14     -0.10411885      0.16944497     -0.11663661    -15.89247603      0.01546807     -0.00846705      0.00230052     -0.00516552
H               3.55613512     -1.16224475     -0.93324530       1       0       0       0      19     -0.23393092      0.02304932     -0.02046719    -17.04110018      0.00565553      0.00338073     -0.00006444     -0.00039308
9
energy=-1401.9040160296247 cutoff=8.00000000 nneightol=1.20000000 pbc="T T T" Lattice="13.00000000       0.00000000       0.00000000       0.00000000       9.00000000       0.00000000       0.00000000       0.00000000       9.00000000" Properties=species:S:1:pos:R:3:Z:I:1:map_shift:I:3:n_neighb:I:1:force:R:3:local_energy:R:1:gap_var:R:1:gap_variance_gradient:R:3
C               0.07149641      0.01355648     -0.00352211       6       0       0       0      11     -0.66553627     -1.28513108     -0.23081378   -152.58308014      0.00512527      0.00513450      0.00114895      0.00138039
O              -0.06268844     -1.10560951     -0.33553190       8       0       0       0      13      0.32371608     -0.42197824     -0.21019390   -437.74754003      0.00360191      0.00153289      0.00644528      0.00153120
O               0.19805930      1.11141158      0.34257263       8       0       0       0      14      0.98444244      1.61442568      0.45752627   -438.31171986      0.00491735      0.01759228     -0.01422817     -0.00241662
C               4.43201563      0.36871532      0.22419126       6       0       0       0      13      0.80978962      0.50849233      0.31720974   -154.06954115      0.00325034     -0.00171797     -0.00139302     -0.00033590
C               3.38085029     -0.32449485     -0.23620075       6       0       0       0      14     -1.13877128     -1.26768562     -0.72097176   -153.05424472      0.00658584     -0.01507288      0.00863650      0.01092977
H               4.29344689      1.25919152      0.84321450       1       0       0       0      18     -0.04689551      0.17433218      0.18702023    -16.71123201      0.00363701     -0.00213488     -0.00145542     -0.00224126
H               5.46072980      0.04924821      0.01354669       1       0       0       0      15      0.38050868      0.31819251      0.13274711    -16.59809087      0.00303531     -0.00139937     -0.00043544     -0.00039642
H               2.38819108      0.00968903      0.03457989       1       0       0       0      13     -0.35993128      0.24922704     -0.06847059    -15.74724718      0.01592162     -0.00953160      0.00268542     -0.00701660
H               3.50873988     -1.17744959     -0.91320477       1       0       0       0      19     -0.28732248      0.11012520      0.13594668    -17.08132007      0.00579958      0.00559703     -0.00140409     -0.00143456
9
energy=-1401.9383492662084 cutoff=8.00000000 nneightol=1.20000000 pbc="T T T" Lattice="13.00000000       0.00000000       0.00000000       0.00000000       9.00000000       0.00000000       0.00000000       0.00000000       9.00000000" Properties=species:S:1:pos:R:3:Z:I:1:map_shift:I:3:n_neighb:I:1:force:R:3:local_energy:R:1:gap_var:R:1:gap_variance_gradient:R:3
C               0.10543378      0.01783904     -0.00539828       6       0       0       0      11     -0.38943201     -0.92589382     -0.08646312   -152.72931030      0.00529825      0.00469535      0.00250086      0.00270364
O              -0.02687552     -1.09733561     -0.33300053       8       0       0       0      13      0.15428493     -1.09309830     -0.46024428   -437.74459097      0.00352734      0.00649085      0.00827183      0.00202612
O               0.23137509      1.11225708      0.34514841       8       0       0       0      14      0.85344438      1.89981527      0.54666906   -438.24412200      0.00550766      0.01543069     -0.01447644     -0.00232801
C               4.39005417      0.36339775      0.21204657       6       0       0       0      13      1.12790460      0.50839660      0.33850142   -154.07097997      0.00355288     -0.00698184     -0.00216757     -0.00025773
C               3.33410313     -0.33573616     -0.21726742       6       0       0       0      14     -1.10772172     -1.45226040     -0.98036660   -153.04995170      0.00669132     -0.01249320      0.00947485      0.01144420
H               4.25517100      1.27600653      0.80567080       1       0       0       0      18     -0.01178611      0.02575984      0.09621980    -16.75403494      0.00384145     -0.00150972     -0.00141494     -0.00184545
H               5.41852059      0.02112389      0.01281327       1       0       0       0      15      0.26843881      0.45560822      0.19747718    -16.61307100      0.00303421     -0.00199287     -0.00065867     -0.00050706
H               2.35887357      0.04057179      0.06967092       1       0       0       0      13     -0.47037847      0.28737699     -0.04090369    -15.62040441      0.01630718     -0.01012855      0.00204502     -0.00841278
H               3.44718112     -1.19041087     -0.90685299       1       0       0       0      19     -0.42475441      0.29429561      0.38911022    -17.11188398      0.00592907      0.00648930     -0.00357495     -0.00282293
9
energy=-1401.9349335693146 cutoff=8.00000000 nneightol=1.20000000 pbc="T T T" Lattice="13.00000000       0.00000000       0.00000000       0.00000000       9.00000000       0.00000000       0.00000000       0.00000000       9.00000000" Properties=species:S:1:pos:R:3:Z:I:1:map_shift:I:3:n_neighb:I:1:force:R:3:local_energy:R:1:gap_var:R:1:gap_variance_gradient:R:3
C               0.13751780      0.02009807     -0.00771828       6       0       0       0      12     -0.25101096     -1.34744950     -0.21220199   -152.90639494      0.00547767      0.00591810      0.00519359      0.00306839
O               0.00909428     -1.09023081     -0.35560605       8       0       0       0      13     -0.09757035     -1.20151091     -0.56234804   -437.76938574      0.00352019      0.01009273      0.00983623      0.00117959
O               0.26540774      1.09980352      0.37025487       8       0       0       0      15      0.55570093      2.47186069      0.75653707   -438.15400766      0.00602915      0.01057931     -0.01340318     -0.00361493
C               4.34317306      0.42044016     -0.11825709       6       0       0       0      13      1.48486867      0.54284801      0.27894044   -154.06490757      0.00391995     -0.00989549     -0.00224526     -0.00024446
C               3.26006072     -0.26253053     -0.49359893       6       0       0       0      14     -1.02203371     -1.44107120     -1.43170277   -153.02194835      0.00689860     -0.00707738      0.00940110      0.01209115
H               4.25180132      1.29450907      0.54734660       1       0       0       0      18      0.07830894     -0.17181342      0.01090206    -16.77680460      0.00402181     -0.00185675     -0.00100491     -0.00174544
H               5.35659578      0.09697938     -0.42268463       1       0       0       0      15      0.16911764      0.54026125      0.28842566    -16.62687013      0.00303613     -0.00248327     -0.00070034     -0.00054055
H               2.32546972      0.13414675     -0.10199916       1       0       0       0      13     -0.51811019      0.23192762      0.06555145    -15.49494915      0.01651926     -0.01102683     -0.00175735     -0.00485909
H               3.30516232     -1.02191098     -1.30844065       1       0       0       0      21     -0.39927096      0.37494746      0.80589613    -17.11966542      0.00611613      0.00574958     -0.00531990     -0.00533465
9
energy=-1401.9127360851312 cutoff=8.00000000 nneightol=1.20000000 pbc="T T T" Lattice="13.00000000       0.00000000       0.00000000       0.00000000       9.00000000       0.00000000       0.00000000       0.00000000       9.00000000" Properties=species:S:1:pos:R:3:Z:I:1:map_shift:I:3:n_neighb:I:1:force:R:3:local_energy:R:1:gap_var:R:1:gap_variance_gradient:R:3
C               0.16818982      0.01925811     -0.01085597       6       0       0       0      12     -0.26436048     -0.72161752      0.00033344   -153.01510489      0.00570319      0.00734474      0.00720014      0.00249553
O               0.04440527     -1.08532600     -0.38973472       8       0       0       0      15     -0.17686957     -0.79828365     -0.48112372   -437.79807801      0.00358013      0.00973267      0.00913985      0.00058846
O               0.29955189      1.09487497      0.40569248       8       0       0       0      16     -0.06331954      1.54882859      0.53404236   -438.12833182      0.00640224      0.00683433     -0.00937839     -0.00254408
C               4.29604489      0.38597488     -0.10325912       6       0       0       0      13      1.40865540      0.20956746      0.07400175   -154.14003568      0.00428581     -0.00933812     -0.00033021     -0.00172407
C               3.18569157     -0.24291775     -0.55985476       6       0       0       0      13     -0.16696016     -0.79493014     -1.84221725   -153.07493008      0.00705409     -0.00478568      0.00793547      0.01052423
H               4.21831308      1.17220540      0.66967961       1       0       0       0      19      0.21444983     -0.21621517      0.03341539    -16.76966959      0.00430622     -0.00379129     -0.00050142     -0.00164890
H               5.30813217      0.08404710     -0.44322690       1       0       0       0      15      0.09256016      0.50194770      0.38631660    -16.60495338      0.00303769     -0.00205066     -0.00022262     -0.00072988
H               2.28719113      0.18861730     -0.14051898       1       0       0       0      14     -0.69921591      0.20957596      0.26069678    -15.31728671      0.01616713     -0.01085614     -0.00829046      0.00063100
H               3.23593213     -0.79767063     -1.53245401       1       0       0       0      21     -0.34493973      0.06112676      1.03453464    -17.06434592      0.00623522      0.00691014     -0.00555236     -0.00759229
9
energy=-1401.8113635302066 cutoff=8.00000000 nneightol=1.20000000 pbc="T T T" Lattice="13.00000000       0.00000000       0.00000000       0.00000000       9.00000000       0.00000000       0.00000000       0.00000000       9.00000000" Properties=species:S:1:pos:R:3:Z:I:1:map_shift:I:3:n_neighb:I:1:force:R:3:local_energy:R:1:gap_var:R:1:gap_variance_gradient:R:3
C               0.19717056      0.01529159     -0.01448440       6       0       0       0      12     -0.54075273      0.01276295      0.32532096   -153.13540458      0.00602376      0.01095712      0.00784973      0.00169559
O               0.07874605     -1.08291736     -0.41350294       8       0       0       0      15     -0.12085690     -0.64691185     -0.47826419   -437.79592921      0.00365580      0.00892650      0.00845601      0.00020726
O               0.33353268      1.08900433      0.42991710       8       0       0       0      16     -0.76046789      0.80718798      0.33237939   -438.07168586      0.00671175      0.00382900     -0.00719156     -0.00232989
C               4.24322639      0.40179277     -0.13011310       6       0       0       0      13      1.09134612     -0.37987986     -0.40453009   -154.19311653      0.00456599     -0.00849001      0.00009547     -0.00248263
C               3.11797042     -0.23136039     -0.61106450       6       0       0       0      13      0.96890967     -0.05661835     -1.55602394   -153.12228753      0.00702710     -0.00322629      0.00616634      0.00770698
H               4.16509387      1.16404270      0.66834002       1       0       0       0      19      0.34250092     -0.16232105      0.09156894    -16.77219809      0.00467228     -0.00271153      0.00005016     -0.00094308
H               5.26044485      0.11075291     -0.46950155       1       0       0       0      14      0.05035111      0.47029697      0.38860649    -16.58503787      0.00304484     -0.00122110      0.00020436     -0.00064166
H               2.24867752      0.22591218     -0.17517197       1       0       0       0      14     -0.75470778      0.16731289      0.37578379    -15.13391475      0.01600886     -0.01431112     -0.01094899      0.00384792
H               3.18328134     -0.68413820     -1.63224868       1       0       0       0      20     -0.27632253     -0.21182966      0.92515866    -17.00178910      0.00632245      0.00624743     -0.00468152     -0.00706049
9
energy=-1401.6453872061059 cutoff=8.00000000 nneightol=1.20000000 pbc="T T T" Lattice="13.00000000       0.00000000       0.00000000       0.00000000       9.00000000       0.00000000       0.00000000       0.00000000       9.00000000" Properties=species:S:1:pos:R:3:Z:I:1:map_shift:I:3:n_neighb:I:1:force:R:3:local_energy:R:1:gap_var:R:1:gap_variance_gradient:R:3
C               0.22484304      0.00876073     -0.01851952       6       0       0       0      12     -1.02091178      0.25934488      0.51596603   -153.25976818      0.00647826      0.01616658      0.00828308      0.00033913
O               0.11292851     -1.08324759     -0.43655569       8       0       0       0      15     -0.10645629     -0.56335896     -0.52665645   -437.78953768      0.00376293      0.00931723      0.00855508     -0.00012238
O               0.36643772      1.07643758      0.45007141       8       0       0       0      17     -1.26642317      0.52010212      0.30764501   -437.98963223      0.00698369      0.00377487     -0.00686533     -0.00281500
C               4.18836248      0.44088158     -0.18995405       6       0       0       0      13      1.51669692     -0.60453672     -0.64961107   -154.16077121      0.00479229     -0.01288708     -0.00073167     -0.00280541
C               3.06238878     -0.21768136     -0.65959048       6       0       0       0      14      1.29259967      0.36140469     -1.28646299   -153.13084920      0.00685702     -0.00148349      0.00484046      0.00551594
H               4.11025151      1.21269454      0.60150673       1       0       0       0      19      0.39096151     -0.11058868      0.10919598    -16.78199401      0.00493772      0.00030329      0.00100205     -0.00026041
H               5.21222445      0.15491778     -0.51799887       1       0       0       0      14      0.02124405      0.45102761      0.35350863    -16.58620275      0.00305409     -0.00039947      0.00053802     -0.00052251
H               2.21095573      0.25275168     -0.20709399       1       0       0       0      14     -0.56161566      0.04565760      0.35533135    -14.97976496      0.01629153     -0.02030526     -0.01110926      0.00710772
H               3.11610825     -0.64495105     -1.69004736       1       0       0       0      20     -0.26609526     -0.35905254      0.82108352    -16.96686699      0.00646522      0.00551332     -0.00451243     -0.00643708
9
energy=-1401.4497187356351 cutoff=8.00000000 nneightol=1.20000000 pbc="T T T" Lattice="13.00000000       0.00000000       0.00000000       0.00000000       9.00000000       0.00000000       0.00000000       0.00000000       9.00000000" Properties=species:S:1:pos:R:3:Z:I:1:map_shift:I:3:n_neighb:I:1:force:R:3:local_energy:R:1:gap_var:R:1:gap_variance_gradient:R:3
C               0.25155938      0.00292883     -0.02201956       6       0       0       0      12     -1.17187772      0.37043899      0.57917843   -153.36036819      0.00712547      0.02276226      0.00853087     -0.00060684
O               0.14518918     -1.08725717     -0.44928052       8       0       0       0      15     -0.07733271     -0.40113637     -0.53611962   -437.79862856      0.00392705      0.00962371      0.00859253      0.00012641
O               0.39804621      1.06819869      0.46082865       8       0       0       0      17     -1.51022386      0.29922853      0.22304090   -437.91161744      0.00727803      0.00501790     -0.00723593     -0.00324775
C               4.14633776      0.41630157     -0.10672334       6       0       0       0      13      1.80168673     -0.61836219     -0.59999557   -154.07859677      0.00509554     -0.01835655     -0.00213517     -0.00374914
C               3.03210668     -0.25433327     -0.59467397       6       0       0       0      14      1.16991726      0.57964688     -1.03279795   -153.13948002      0.00664085     -0.00082983      0.00390875      0.00403256
H               4.05339531      1.21114103      0.66242168       1       0       0       0      19      0.37422828     -0.07755360      0.11933712    -16.78863653      0.00508204      0.00293912      0.00207761      0.00031898
H               5.18398107      0.11718480     -0.37857857       1       0       0       0      14      0.00331059      0.41239773      0.29135680    -16.59454521      0.00306557      0.00055934      0.00090658     -0.00042002
H               2.18506652      0.24133481     -0.16191085       1       0       0       0      14     -0.27949984     -0.10617154      0.24149737    -14.83526236      0.01689319     -0.02769605     -0.00996196      0.00975236
H               3.09536739     -0.68639974     -1.62054047       1       0       0       0      20     -0.31020874     -0.45848843      0.71450254    -16.94258367      0.00660814      0.00598009     -0.00468328     -0.00620657
9
energy=-1401.2501322385763 cutoff=8.00000000 nneightol=1.20000000 pbc="T T T" Lattice="13.00000000       0.00000000       0.00000000       0.00000000       9.00000000       0.00000000       0.00000000       0.00000000       9.00000000" Properties=species:S:1:pos:R:3:Z:I:1:map_shift:I:3:n_neighb:I:1:force:R:3:local_energy:R:1:gap_var:R:1:gap_variance_gradient:R:3
C               0.27722241     -0.00123322     -0.02461026       6       0       0       0      12     -1.22436301      0.39900451      0.56485745   -153.43614527      0.00792333      0.02682719      0.00854174     -0.00075916
O               0.17622772     -1.09564929     -0.44793797       8       0       0       0      15     -0.09927589     -0.13964513     -0.45709008   -437.83322021      0.00411395      0.00921959      0.00835520      0.00052773
O               0.42859616      1.06827755      0.45949313       8       0       0       0      16     -1.51659428      0.02015779      0.05791072   -437.84893868      0.00759670      0.00747789     -0.00797682     -0.00352282
C               4.10557281      0.36990597      0.01678351       6       0       0       0      13      1.93958604     -0.50778647     -0.38947867   -153.96967971      0.00541673     -0.02034231     -0.00306754     -0.00507786
C               3.00630649     -0.30894601     -0.49462517       6       0       0       0      13      0.87568349      0.74897479     -0.79179579   -153.15979892      0.00646209     -0.00114577      0.00324267      0.00312128
H               3.99759895      1.19457886      0.75436138       1       0       0       0      19      0.31773658     -0.06387129      0.11431222    -16.78968360      0.00515622      0.00400977      0.00282519      0.00073066
H               5.15482620      0.05226756     -0.18228137       1       0       0       0      14      0.00827321      0.34198105      0.20694250    -16.60389790      0.00308066      0.00158177      0.00132117     -0.00026205
H               2.16165237      0.21841547     -0.09568558       1       0       0       0      14      0.00756212     -0.26961773      0.11549887    -14.69117482      0.01774055     -0.03490264     -0.00819219      0.01157446
H               3.08387132     -0.76054860     -1.50890892       1       0       0       0      20     -0.30860825     -0.52919752      0.57884279    -16.91759313      0.00667452      0.00727452     -0.00504944     -0.00633224
9
energy=-1401.0569083514813 cutoff=8.00000000 nneightol=1.20000000 pbc="T T T" Lattice="13.00000000       0.00000000       0.00000000       0.00000000       9.00000000       0.00000000       0.00000000       0.00000000       9.00000000" Properties=species:S:1:pos:R:3:Z:I:1:map_shift:I:3:n_neighb:I:1:force:R:3:local_energy:R:1:gap_var:R:1:gap_variance_gradient:R:3
C               0.30117370     -0.00171992     -0.02567978       6       0       0       0      12     -1.10945313      0.36278129      0.52779967   -153.49405139      0.00880081      0.02874535      0.00900958     -0.00064646
O               0.20661002     -1.10750803     -0.42825357       8       0       0       0      16     -0.26876575      0.20226350     -0.29573807   -437.89435524      0.00428839      0.00872306      0.00805028      0.00052201
O               0.45784936      1.08065624      0.44197974       8       0       0       0      16     -1.36771893     -0.35406783     -0.12635011   -437.80827341      0.00794094      0.01080178     -0.00900185     -0.00377017
C               4.06079223      0.34960236      0.08462611       6       0       0       0      14      1.92072706     -0.30968886     -0.14510743   -153.84326746      0.00567549     -0.02025254     -0.00352557     -0.00588774
C               2.97347751     -0.34693937     -0.42708341       6       0       0       0      14      0.55261352      0.93607773     -0.59037772   -153.18868608      0.00637572     -0.00190984      0.00276473      0.00255918
H               3.94703397      1.20952112      0.78251305       1       0       0       0      19      0.18730903     -0.08108474      0.07631058    -16.78451471      0.00524502      0.00332960      0.00296358      0.00065659
H               5.11679227      0.02062040     -0.05162113       1       0       0       0      14      0.03508501      0.23812133      0.11070247    -16.61246956      0.00309965      0.00254414      0.00179551     -0.00008603
H               2.13501744      0.21052671     -0.05648924       1       0       0       0      15      0.26567756     -0.42061379      0.01300517    -14.54452536      0.01875980     -0.04029908     -0.00652295      0.01313073
H               3.05133864     -0.83043395     -1.42423440       1       0       0       0      20     -0.21547436     -0.57378863      0.42975543    -16.88676514      0.00664224      0.00831753     -0.00553331     -0.00647812
9
energy=-1400.8661794367711 cutoff=8.00000000 nneightol=1.20000000 pbc="T T T" Lattice="13.00000000       0.00000000       0.00000000       0.00000000       9.00000000       0.00000000       0.00000000       0.00000000       9.00000000" Properties=species:S:1:pos:R:3:Z:I:1:map_shift:I:3:n_neighb:I:1:force:R:3:local_energy:R:1:gap_var:R:1:gap_variance_gradient:R:3
C               0.32333459      0.00066114     -0.02470487       6       0       0       0      12     -0.91716583      0.25123641      0.47538083   -153.54287646      0.00964074      0.02698045      0.00930810     -0.00109711
O               0.23636499     -1.12112349     -0.39306221       8       0       0       0      16     -0.55941309      0.60864875     -0.08890886   -437.97501376      0.00444680      0.00882121      0.00778400     -0.00004326
O               0.48601318      1.10210461      0.41135248       8       0       0       0      16     -1.27290372     -0.80247853     -0.29936226   -437.79011795      0.00831014      0.01480994     -0.01014032     -0.00406928
C               4.01543443      0.35825870      0.08679017       6       0       0       0      14      1.86685668     -0.05978172      0.06383127   -153.70494149      0.00585395     -0.01998091     -0.00356164     -0.00601110
C               2.93548836     -0.36474324     -0.40000875       6       0       0       0      14      0.24370307      1.11963471     -0.42647030   -153.21934167      0.00640472     -0.00269522      0.00233380      0.00219370
H               3.90426137      1.25560707      0.73872048       1       0       0       0      19      0.14652717     -0.09922754      0.03845700    -16.77120118      0.00535916      0.00335032      0.00325701      0.00060840
H               5.07578503      0.02721648     -0.00250691       1       0       0       0      15      0.07440911      0.10701072      0.01648273    -16.61996621      0.00312191      0.00337373      0.00233436      0.00002911
H               2.10685336      0.21945241     -0.04856559       1       0       0       0      15      0.47193445     -0.53567240     -0.06267621    -14.39449035      0.01986816     -0.04287956     -0.00532649      0.01468339
H               2.99813246     -0.88873866     -1.37497997       1       0       0       0      21     -0.05394783     -0.58937041      0.28326581    -16.84823037      0.00655191      0.00822005     -0.00598882     -0.00629384
9
energy=-1400.6670990740756 cutoff=8.00000000 nneightol=1.20000000 pbc="T T T" Lattice="13.00000000       0.00000000       0.00000000       0.00000000       9.00000000       0.00000000       0.00000000       0.00000000       9.00000000" Properties=species:S:1:pos:R:3:Z:I:1:map_shift:I:3:n_neighb:I:1:force:R:3:local_energy:R:1:gap_var:R:1:gap_variance_gradient:R:3
C               0.34476715      0.00533023     -0.02258239       6       0       0       0      12     -0.74626489      0.08526630      0.39111348   -153.58717903      0.01035229      0.02305289      0.00914168     -0.00144203
O               0.26523691     -1.13503835     -0.34409634       8       0       0       0      14     -0.88702660      1.06204920      0.08935043   -438.06444611      0.00460830      0.00966542      0.00740572     -0.00093054
O               0.51332551      1.12931642      0.36938676       8       0       0       0      14     -1.25054549     -1.26568793     -0.45403660   -437.79026909      0.00869564      0.01820406     -0.01131143     -0.00393519