9
energy=-1401.8498565491093 cutoff=8.00000000 nneightol=1.20000000 pbc="T T T" Lattice="13.00000000       0.00000000       0.00000000       0.00000000       9.00000000       0.00000000       0.00000000       0.00000000       9.00000000" Properties=species:S:1:pos:R:3:Z:I:1:map_shift:I:3:n_neighb:I:1:force:R:3:local_energy:R:1:gap_var:R:1:gap_variance_gradient:R:3
C               0.00005179      0.00003613     -0.00008682       6       0       0       0      12     -0.71616740      0.08149946      0.07809209   -152.36801565      0.00469919      0.00753098     -0.00155187     -0.00082503
O              -0.13249936     -1.12387930     -0.32607516       8       0       0       0      14     -0.00977908      0.19278975      0.11863108   -437.72026183      0.00376144     -0.00437837      0.00314623     -0.00002105
O               0.13246048      1.12385218      0.32614034       8       0       0       0      14      0.60777928     -0.29930867     -0.09183241   -438.43012828      0.00381012      0.00944956     -0.00857660     -0.00114853
C               4.52496189      0.32653158      0.25008054       6       0       0       0      15      0.57584140      0.68705888      0.43457017   -153.99792902      0.00306717      0.00582900     -0.00082158     -0.00063726
C               3.47503812     -0.32653161     -0.25008061       6       0       0       0      14     -0.90079627     -1.10620558     -0.51939988   -153.07284990      0.00666219     -0.01240857      0.00762508      0.00899194
H               4.40543032      1.17877744      0.91904030       1       0       0       0      19     -0.24543082      0.30760755      0.29124838    -16.62958607      0.00316126     -0.00051773     -0.00123813     -0.00239676
H               5.54824592      0.03641898      0.01166389       1       0       0       0      15      0.55674287      0.06718716     -0.00289928    -16.58860884      0.00304409     -0.00057028      0.00009126     -0.00015559
H               2.45175452     -0.03641814     -0.01166331       1       0       0       0      14      0.27576879      0.09625601     -0.16517842    -16.04784753      0.01509267     -0.00624351      0.00130748     -0.00380807
H               3.59456914     -1.17877784     -0.91904006       1       0       0       0      19     -0.14395877     -0.02688457     -0.14323174    -16.99462942      0.00546950      0.00130894      0.00001814      0.00000035
9
energy=-1401.8391703424450 cutoff=8.00000000 nneightol=1.20000000 pbc="T T T" Lattice="13.00000000       0.00000000       0.00000000       0.00000000       9.00000000       0.00000000       0.00000000       0.00000000       9.00000000" Properties=species:S:1:pos:R:3:Z:I:1:map_shift:I:3:n_neighb:I:1:force:R:3:local_energy:R:1:gap_var:R:1:gap_variance_gradient:R:3
C               0.03623791      0.00729190     -0.00192878       6       0       0       0      11     -0.79365471     -1.41611060     -0.30307084   -152.51775517      0.00491795      0.00706260      0.00046134      0.00006756
O              -0.09793585     -1.11454172     -0.32089595       8       0       0       0      13      0.19451258     -0.45054333     -0.13864088   -437.71267849      0.00367778     -0.00229209      0.00577319      0.00105926
O               0.16477460      1.11002987      0.32190101       8       0       0       0      14      1.05228202      1.78626075      0.49606703   -438.34200219      0.00438323      0.01518710     -0.01367316     -0.00238623
C               4.47550122      0.32627723      0.24683202       6       0       0       0      13      1.29665161     -0.05950481     -0.17029514   -154.05013009      0.00309420      0.00283884     -0.00051611     -0.00031524
C               3.41687097     -0.33868978     -0.24407595       6       0       0       0      14     -0.86216402     -0.74203468     -0.40936800   -153.07359814      0.00662814     -0.01541526      0.00834472      0.00955719
H               4.33657179      1.17995174      0.89725979       1       0       0       0      19      0.01404752      0.47091853      0.46783330    -16.64639150      0.00341169     -0.00262405     -0.00105746     -0.00238972
H               5.51306941     -0.00500897     -0.01181526       1       0       0       0      15     -0.29714342      0.59446873      0.40870826    -16.61007063      0.00302660      0.00021922     -0.00075361     -0.00074348
H               2.42521122     -0.00253720      0.01515304       1       0       0       0      14     -0.31109852      0.12233174     -0.12518018    -15.86951304      0.01547140     -0.00823799      0.00080771     -0.00481287
H               3.55120784     -1.14577894     -0.95210356       1       0       0       0      19     -0.29343308     -0.30578634     -0.22605356    -17.01703109      0.00570171      0.00326163      0.00061338     -0.00003646
9
energy=-1401.7779586467227 cutoff=8.00000000 nneightol=1.20000000 pbc="T T T" Lattice="13.00000000       0.00000000       0.00000000       0.00000000       9.00000000       0.00000000       0.00000000       0.00000000       9.00000000" Properties=species:S:1:pos:R:3:Z:I:1:map_shift:I:3:n_neighb:I:1:force:R:3:local_energy:R:1:gap_var:R:1:gap_variance_gradient:R:3
C               0.07149641      0.01355648     -0.00352211       6       0       0       0      11     -0.75960708     -2.58020403     -0.59197280   -152.68215059      0.00521801      0.00567115      0.00353420      0.00114492
O              -0.06268844     -1.10560951     -0.31304483       8       0       0       0      13      0.20514546     -1.25113940     -0.42528373   -437.69531325      0.00359722      0.00165891      0.00915430      0.00202887
O               0.19805930      1.09910873      0.31758771       8       0       0       0      14      1.26833246      3.73390933      1.04811769   -438.19159616      0.00512659      0.01712721     -0.01803081     -0.00373255
C               4.42669527      0.32130859      0.24794472       6       0       0       0      13      1.71003121     -0.70945302     -0.63749090   -154.09891054      0.00326733     -0.00320967      0.00001909     -0.00046554
C               3.35847727     -0.35244781     -0.24113586       6       0       0       0      14     -0.65588887     -0.42651160     -0.37889912   -153.12157157      0.00673224     -0.01617698      0.00929259      0.00927326
H               4.26698454      1.17779913      0.88535089       1       0       0       0      19      0.19794615      0.49083479      0.53729261    -16.66931883      0.00372309     -0.00243761     -0.00045324     -0.00186333
H               5.47267369     -0.04966114     -0.02311628       1       0       0       0      15     -0.86488009      1.02844375      0.72833328    -16.60230892      0.00303730      0.00078243     -0.00151367     -0.00136467
H               2.39541212      0.03599147      0.02838518       1       0       0       0      14     -0.73475226      0.16769937     -0.06225775    -15.69377087      0.01585152     -0.00906940     -0.00185898     -0.00420152
H               3.50814085     -1.10974235     -0.99596339       1       0       0       0      19     -0.36632698     -0.45357919     -0.21783927    -17.02301791      0.00591621      0.00565397     -0.00014348     -0.00081945
9
energy=-1401.7043224315823 cutoff=8.00000000 nneightol=1.20000000 pbc="T T T" Lattice="13.00000000       0.00000000       0.00000000       0.00000000       9.00000000       0.00000000       0.00000000       0.00000000       9.00000000" Properties=species:S:1:pos:R:3:Z:I:1:map_shift:I:3:n_neighb:I:1:force:R:3:local_energy:R:1:gap_var:R:1:gap_variance_gradient:R:3
C               0.10543378      0.01783904     -0.00539828       6       0       0       0      11     -0.67376195     -3.78176902     -0.96747226   -152.86372004      0.00558854      0.00643585      0.00785315      0.00289624
O              -0.02687552     -1.09733561     -0.32134841       8       0       0       0      13     -0.14121676     -1.80394412     -0.64128519   -437.68434091      0.00356994      0.00630157      0.01217587      0.00274556
O               0.23137509      1.08585792      0.32805265       8       0       0       0      14      1.19505987      5.48639166      1.62765474   -438.01723388      0.00586192      0.01327431     -0.02062427     -0.00526223
C               4.37674378      0.31897465      0.25741943       6       0       0       0      13      1.41348483     -1.18395323     -0.96142232   -154.15245416      0.00363950     -0.00765066      0.00053339     -0.00092604
C               3.30007864     -0.36203573     -0.24566190       6       0       0       0      14      0.26632438     -0.04942981     -0.35926923   -153.18131436      0.00696313     -0.01520119      0.00938516      0.00819491
H               4.19059843      1.17469336      0.89706029       1       0       0       0      19      0.38349414      0.31134111      0.46319277    -16.69720464      0.00406707     -0.00258133     -0.00017903     -0.00139671
H               5.42394921     -0.07737802     -0.01841736       1       0       0       0      15     -1.08332011      1.28546322      0.91987140    -16.57443683      0.00305817      0.00109676     -0.00202769     -0.00191390
H               2.35864609      0.07407388      0.03009488       1       0       0       0      14     -0.91222347      0.17781028     -0.00242799    -15.52354771      0.01603735     -0.00945996     -0.00542041     -0.00224837
H               3.47213957     -1.05931678     -1.05675665       1       0       0       0      19     -0.44784093     -0.44191009     -0.07884191    -17.01006990      0.00609088      0.00778464     -0.00169617     -0.00208946
9
energy=-1401.6329480534466 cutoff=8.00000000 nneightol=1.20000000 pbc="T T T" Lattice="13.00000000       0.00000000       0.00000000       0.00000000       9.00000000       0.00000000       0.00000000       0.00000000       9.00000000" Properties=species:S:1:pos:R:3:Z:I:1:map_shift:I:3:n_neighb:I:1:force:R:3:local_energy:R:1:gap_var:R:1:gap_variance_gradient:R:3
C               0.13751780      0.02009807     -0.00771828       6       0       0       0      11     -0.54627008     -3.14793939     -0.76970650   -153.08147060      0.00600732      0.00704151      0.01015132      0.00379995
O               0.00909428     -1.09023081     -0.30877766       8       0       0       0      13     -0.42156026     -2.84520696     -0.95409228   -437.63005208      0.00362100      0.00931278      0.01502738      0.00298995
O               0.26540774      1.08727682      0.32152284       8       0       0       0      15      0.78535819      5.95528458      1.71734177   -437.90979829      0.00641766      0.00874930     -0.02042760     -0.00521370
C               4.32681303      0.33506517      0.25854297       6       0       0       0      13      0.45356786     -1.53879996     -1.14265156   -154.20117299      0.00407816     -0.00778607      0.00087760     -0.00143240
C               3.24310523     -0.36869724     -0.24513201       6       0       0       0      14      1.23707971      0.46281787     -0.28893024   -153.19739851      0.00722850     -0.01109265      0.00816180      0.00637224
H               4.11210327      1.20816558      0.88656492       1       0       0       0      19      0.71022514      0.01143998      0.27734422    -16.72091962      0.00449546     -0.00466204      0.00034448     -0.00107717
H               5.36720533     -0.07805417     -0.00318377       1       0       0       0      15     -0.96055317      1.37222255      0.94075388    -16.54078645      0.00307411      0.00105408     -0.00225261     -0.00220139
H               2.31494226      0.11675792      0.02586438       1       0       0       0      14     -0.72021856      0.04305735      0.00252146    -15.36595995      0.01603703     -0.01220761     -0.00813431      0.00054848
H               3.43968923     -1.02815324     -1.09486064       1       0       0       0      20     -0.53762883     -0.31287602      0.21741925    -16.98538956      0.00622857      0.00959070     -0.00374805     -0.00378596
9
energy=-1401.5228986659658 cutoff=8.00000000 nneightol=1.20000000 pbc="T T T" Lattice="13.00000000       0.00000000       0.00000000       0.00000000       9.00000000       0.00000000       0.00000000       0.00000000       9.00000000" Properties=species:S:1:pos:R:3:Z:I:1:map_shift:I:3:n_neighb:I:1:force:R:3:local_energy:R:1:gap_var:R:1:gap_variance_gradient:R:3
C               0.16818982      0.01925811     -0.01085597       6       0       0       0      11     -0.59870448     -2.12379329     -0.49616621   -153.29406253      0.00640611      0.00878631      0.01086416      0.00392577
O               0.04440527     -1.08532600     -0.30531247       8       0       0       0      13     -0.54939834     -3.65973771     -1.20128735   -437.57390259      0.00371242      0.01020677      0.01648928      0.00272789
O               0.29955189      1.08733514      0.32220558       8       0       0       0      15      0.19217747      5.87579842      1.67977063   -437.83373618      0.00678579      0.00276544     -0.01904563     -0.00505261
C               4.27773912      0.34732524      0.25752485       6       0       0       0      13     -0.68816188     -1.74006907     -1.19471035   -154.22509830      0.00443464     -0.00595394      0.00088874     -0.00201599
C               3.18851649     -0.37706901     -0.24601611       6       0       0       0      14      1.95775308      1.11851284     -0.20652712   -153.17612418      0.00735915     -0.00485932      0.00571638      0.00464018
H               4.03917376      1.23936580      0.87883037       1       0       0       0      19      1.02243853     -0.32962885      0.05172078    -16.73060866      0.00488590     -0.00261120      0.00164016     -0.00008348
H               5.30425585     -0.07043885      0.01864596       1       0       0       0      15     -0.51840470      1.26908553      0.84240220    -16.50783813      0.00308268      0.00064044     -0.00210911     -0.00222180
H               2.26677170      0.15339604      0.02181147       1       0       0       0      14     -0.21898305     -0.28352504     -0.06921928    -15.22456381      0.01607131     -0.01964862     -0.00849785      0.00372770
H               3.40333240     -1.00676518     -1.13209158       1       0       0       0      20     -0.59871664     -0.12664283      0.59401670    -16.95696428      0.00634658      0.01067413     -0.00594613     -0.00564767
9
energy=-1401.3566819264634 cutoff=8.00000000 nneightol=1.20000000 pbc="T T T" Lattice="13.00000000       0.00000000       0.00000000       0.00000000       9.00000000       0.00000000       0.00000000       0.00000000       9.00000000" Properties=species:S:1:pos:R:3:Z:I:1:map_shift:I:3:n_neighb:I:1:force:R:3:local_energy:R:1:gap_var:R:1:gap_variance_gradient:R:3
C               0.19717056      0.01529159     -0.01448440       6       0       0       0      12     -0.92893103     -1.14228203     -0.23123112   -153.46897899      0.00681848      0.01279646      0.01097446      0.00336000
O               0.07874605     -1.08291736     -0.31822079       8       0       0       0      13     -0.52340664     -4.03054913     -1.36117221   -437.53503662      0.00380166      0.00980681      0.01664858      0.00213508
O               0.33353268      1.08269858      0.33548378       8       0       0       0      15     -0.49514524      5.43784978      1.63911253   -437.76819465      0.00705181      0.00283166     -0.01884364     -0.00572388
C               4.23151259      0.37325481      0.17332515       6       0       0       0      13     -1.49330848     -1.69118848     -1.06589893   -154.21751064      0.00466773     -0.00601894      0.00057087     -0.00266666
C               3.13288859     -0.36797405     -0.31360425       6       0       0       0      15      2.21526369      1.70770134     -0.24731608   -153.14018703      0.00728616      0.00107796      0.00314542      0.00344232
H               3.98695506      1.27382782      0.80632656       1       0       0       0      19      1.21106112     -0.58991959     -0.16400473    -16.72981881      0.00511559      0.00011391      0.00312769      0.00089773
H               5.23957456     -0.03117740     -0.06210726       1       0       0       0      15      0.15996726      1.00014838      0.67991582    -16.47547809      0.00309050      0.00000476     -0.00159561     -0.00205561
H               2.21750806      0.19367177     -0.02224417       1       0       0       0      15      0.45399012     -0.71676316     -0.21237717    -15.09486835      0.01640695     -0.03056797     -0.00705825      0.00768353
H               3.34009826     -0.96272574     -1.24436318       1       0       0       0      21     -0.59949080      0.02500287      0.96297189    -16.92660875      0.00648771      0.00995536     -0.00696954     -0.00707250
9
energy=-1401.1492395759381 cutoff=8.00000000 nneightol=1.20000000 pbc="T T T" Lattice="13.00000000       0.00000000       0.00000000       0.00000000       9.00000000       0.00000000       0.00000000       0.00000000       9.00000000" Properties=species:S:1:pos:R:3:Z:I:1:map_shift:I:3:n_neighb:I:1:force:R:3:local_energy:R:1:gap_var:R:1:gap_variance_gradient:R:3
C               0.22484304      0.00876073     -0.01851952       6       0       0       0      12     -1.35512933      0.36050959      0.26714700   -153.58249408      0.00728848      0.01822392      0.01009593      0.00190179
O               0.11292851     -1.08324759     -0.33248864       8       0       0       0      13     -0.54396171     -4.32391009     -1.52997040   -437.50569454      0.00392086      0.01031737      0.01672423      0.00182111
O               0.36643772      1.08123410      0.35010264       8       0       0       0      15     -1.00868899      4.28057295      1.36539867   -437.73261548      0.00742372      0.00771652     -0.01873451     -0.00649067
C               4.18305350      0.38984273      0.11877057       6       0       0       0      13     -1.78639154     -1.41491238     -0.83382320   -154.17580576      0.00490418     -0.00983036     -0.00049446     -0.00360482
C               3.08044807     -0.36275710     -0.35735668       6       0       0       0      15      2.12150544      2.12613259     -0.32747529   -153.11636968      0.00704601      0.00447999      0.00135844      0.00262630
H               3.94265555      1.29419204      0.76198277       1       0       0       0      19      1.24917920     -0.68640727     -0.26935934    -16.72696031      0.00522074      0.00194141      0.00430616      0.00144777
H               5.17891690      0.00353669     -0.10095603       1       0       0       0      15      0.85065042      0.67302907      0.47848261    -16.45059602      0.00310042     -0.00054556     -0.00082206     -0.00174678
H               2.17322039      0.22356496     -0.04934876       1       0       0       0      15      1.08300779     -1.09007879     -0.37684631    -14.96451400      0.01706675     -0.04099045     -0.00522721      0.01177440
H               3.27433175     -0.92575421     -1.32542462       1       0       0       0      21     -0.61017129      0.07506433      1.22644625    -16.89418971      0.00667174      0.00868716     -0.00720652     -0.00772910
9
energy=-1400.9698122205414 cutoff=8.00000000 nneightol=1.20000000 pbc="T T T" Lattice="13.00000000       0.00000000       0.00000000       0.00000000       9.00000000       0.00000000       0.00000000       0.00000000       9.00000000" Properties=species:S:1:pos:R:3:Z:I:1:map_shift:I:3:n_neighb:I:1:force:R:3:local_energy:R:1:gap_var:R:1:gap_variance_gradient:R:3
C               0.25155938      0.00292883     -0.02201956       6       0       0       0      12     -1.34366621      2.11965263      0.81280945   -153.63438107      0.00790356      0.02539348      0.00864274      0.00119592
O               0.14518918     -1.08725717     -0.33394844       8       0       0       0      13     -0.46858111     -4.44911577     -1.62990990   -437.50686926      0.00410383      0.01105884      0.01647383      0.00206092
O               0.39804621      1.08957903      0.35649424       8       0       0       0      15     -1.24386825      2.68890946      0.79705179   -437.73365950      0.00783185      0.01143651     -0.01735372     -0.00584472
C               4.13068410      0.34739050      0.25337488       6       0       0       0      13     -1.85437655     -1.14625239     -0.72449970   -154.10505602      0.00521529     -0.01400736     -0.00183184     -0.00520266
C               3.03934558     -0.40282458     -0.25407327       6       0       0       0      14      1.89425264      2.28163217     -0.36269246   -153.12546331      0.00674041      0.00440604      0.00060541      0.00246025
H               3.89159770      1.26196436      0.87930940       1       0       0       0      19      1.07999567     -0.62900833     -0.18720826    -16.72733064      0.00526807      0.00156865      0.00424357      0.00124012
H               5.12821270     -0.03567393      0.10759706       1       0       0       0      15      1.27421099      0.38422154      0.36484280    -16.45143293      0.00310588     -0.00064025      0.00007847     -0.00141689
H               2.14293234      0.21596216      0.01511820       1       0       0       0      15      1.37644839     -1.28460064     -0.38493065    -14.82061736      0.01781568     -0.04783106     -0.00340760      0.01318599
H               3.25016185     -0.95341293     -1.23318926       1       0       0       0      20     -0.71441557      0.03456132      1.31453694    -16.86500213      0.00683263      0.00861513     -0.00745086     -0.00767893
9
energy=-1400.8820182615477 cutoff=8.00000000 nneightol=1.20000000 pbc="T T T" Lattice="13.00000000       0.00000000       0.00000000       0.00000000       9.00000000       0.00000000       0.00000000       0.00000000       9.00000000" Properties=species:S:1:pos:R:3:Z:I:1:map_shift:I:3:n_neighb:I:1:force:R:3:local_energy:R:1:gap_var:R:1:gap_variance_gradient:R:3
C               0.27722241     -0.00123322     -0.02461026       6       0       0       0      12     -1.28941637      2.27808352      0.92503644   -153.65742270      0.00865831      0.02866760      0.00827543      0.00008545
O               0.17622772     -1.09564929     -0.34733922       8       0       0       0      13     -0.40157091     -3.53252747     -1.43098994   -437.60014035      0.00427896      0.01067954      0.01506634      0.00209231
O               0.42859616      1.09262257      0.36792939       8       0       0       0      15     -1.20717142      1.53695159      0.46229374   -437.73686718      0.00813148      0.01296940     -0.01553432     -0.00541645
C               4.08020331      0.33921440      0.25477140       6       0       0       0      13     -1.36342123     -1.01217018     -0.62822078   -154.00362701      0.00552463     -0.01590084     -0.00269219     -0.00619248
C               2.99417410     -0.41197906     -0.25407105       6       0       0       0      14      1.67532898      2.19000452     -0.46345528   -153.17224701      0.00649781      0.00156914      0.00111707      0.00237511
H               3.86726434      1.24856404      0.87920928       1       0       0       0      19      0.79077784     -0.37375750     -0.03708044    -16.73129727      0.00530943      0.00164641      0.00371460      0.00083374
H               5.09008694     -0.02593283      0.14739861       1       0       0       0      15      1.24544778      0.20932301      0.26612889    -16.49023297      0.00310472     -0.00002764      0.00100765     -0.00100598
H               2.12135233      0.21346452      0.01200736       1       0       0       0      15      1.22351885     -1.15809598     -0.31645313    -14.64874100      0.01851214     -0.04903123     -0.00365005      0.01506856
H               3.18655001     -0.93953412     -1.24738219       1       0       0       0      20     -0.67349352     -0.13781152      1.22274051    -16.84144277      0.00686435      0.00942764     -0.00730452     -0.00784025
9
energy=-1400.8271687970116 cutoff=8.00000000 nneightol=1.20000000 pbc="T T T" Lattice="13.00000000       0.00000000       0.00000000       0.00000000       9.00000000       0.00000000       0.00000000       0.00000000       9.00000000" Properties=species:S:1:pos:R:3:Z:I:1:map_shift:I:3:n_neighb:I:1:force:R:3:local_energy:R:1:gap_var:R:1:gap_variance_gradient:R:3
C               0.30117370     -0.00171992     -0.02567978       6       0       0       0      12     -1.04001544      2.26514331      0.94293678   -153.66032441      0.00934177      0.02795494      0.00725873     -0.00134369
O               0.20661002     -1.10750803     -0.34392047       8       0       0       0      14     -0.46348498     -2.37962938     -1.05987315   -437.73761375      0.00443494      0.00990265      0.01311035      0.00171225
O               0.45784936      1.10685986      0.36493384       8       0       0       0      15     -1.16766892      0.26160544      0.05822254   -437.77280670      0.00823312      0.01398748     -0.01312576     -0.00453912
C               4.02944604      0.34004499      0.24757044       6       0       0       0      14     -0.25045715     -0.94473934     -0.49790184   -153.86177374      0.00576383     -0.01681512     -0.00299201     -0.00688408
C               2.95099448     -0.41689517     -0.25054815       6       0       0       0      14      1.55976379      1.76822568     -0.61234797   -153.23902633      0.00642924     -0.00300023      0.00267013      0.00230238
H               3.85235553      1.25015565      0.85606283       1       0       0       0      18      0.45416266      0.01960693      0.19598151    -16.73337224      0.00534827      0.00244322      0.00306366      0.00044007
H               5.06375133     -0.00647734      0.18498111       1       0       0       0      14      0.75404411      0.10571418      0.14397977    -16.55552035      0.00310909      0.00143082      0.00189234     -0.00047703
H               2.10837153      0.20758993      0.00409175       1       0       0       0      15      0.64929435     -0.72772012     -0.10613784    -14.45305106      0.01914659     -0.04582392     -0.00509726      0.01603506
H               3.11646819     -0.93911317     -1.24051279       1       0       0       0      20     -0.49563842     -0.36820671      0.93514019    -16.81368022      0.00674339      0.00992015     -0.00678018     -0.00724584
9
energy=-1400.7046555395698 cutoff=8.00000000 nneightol=1.20000000 pbc="T T T" Lattice="13.00000000       0.00000000       0.00000000       0.00000000       9.00000000       0.00000000       0.00000000       0.00000000       9.00000000" Properties=species:S:1:pos:R:3:Z:I:1:map_shift:I:3:n_neighb:I:1:force:R:3:local_energy:R:1:gap_var:R:1:gap_variance_gradient:R:3
C               0.32333459      0.00066114     -0.02470487       6       0       0       0      12     -0.71086457      1.98703696      0.85403105   -153.65326252      0.00990525      0.02562539      0.00615292     -0.00267585
O               0.23636499     -1.12112349     -0.33041822       8       0       0       0      14     -0.68275146     -0.99732413     -0.56815291   -437.90093726      0.00457233      0.00965704      0.01073367      0.00075676
O               0.48601318      1.12763990      0.35475574       8       0       0       0      14     -1.19642362     -0.98939421     -0.32227316   -437.81846992      0.00824476      0.01563783     -0.01111752     -0.00387314
C               3.97914345      0.34509280      0.23604747       6       0       0       0      14      1.29470471     -0.74638421     -0.23714759   -153.66941386      0.00593857     -0.01827026     -0.00306434     -0.00750247
C               2.90948668     -0.41872394     -0.24487303       6       0       0       0      14      1.56022607      1.06381936     -0.74849073   -153.29700849      0.00657969     -0.00788619      0.00461876      0.00202366
H               3.84313637      1.26213325      0.82178314       1       0       0       0      18      0.06312733      0.41488833      0.39500873    -16.73242973      0.00540219      0.00385376      0.00260744      0.00029337
H               5.04466242      0.01929178      0.22129318       1       0       0       0      13      0.02277562     -0.03036774     -0.04332935    -16.61660760      0.00313159      0.00351288      0.00276126      0.00014373
H               2.09808911      0.20090323     -0.00377861       1       0       0       0      15     -0.15588147     -0.09179419      0.17478390    -14.24507120      0.01989715     -0.04079714     -0.00702333      0.01631485
H               3.04155578     -0.94799635     -1.21878978       1       0       0       0      20     -0.19491262     -0.61048017      0.49557006    -16.77145497      0.00658355      0.00866670     -0.00566886     -0.00548091
9
energy=-1400.4673425597364 cutoff=8.00000000 nneightol=1.20000000 pbc="T T T" Lattice="13.00000000       0.00000000       0.00000000       0.00000000       9.00000000       0.00000000       0.00000000       0.00000000       9.00000000" Properties=species:S:1:pos:R:3:Z:I:1:map_shift:I:3:n_neighb:I:1:force:R:3:local_energy:R:1:gap_var:R:1:gap_variance_gradient:R:3
C               0.34476715      0.00533023     -0.02258239       6       0       0       0      12     -0.47652980      1.07540694      0.57976066   -153.65002060      0.01044897      0.02321128      0.00595632     -0.00355844
O               0.26523691     -1.13503835     -0.32080240       8       0       0       0      14     -1.02404352      0.65216321     -0.02381335   -438.06651962      0.00472158      0.01067783      0.00810401     -0.00065767
O               0.51332551      1.14632782      0.34683373       8       0       0       0      14     -1.24990752     -1.90977433     -0.59099354   -437.84925112      0.00832385      0.01800414     -0.01027998     -0.00368049