9
energy=-1401.8498565491093 cutoff=8.00000000 nneightol=1.20000000 pbc="T T T" Lattice="13.00000000       0.00000000       0.00000000       0.00000000       9.00000000       0.00000000       0.00000000       0.00000000       9.00000000" Properties=species:S:1:pos:R:3:Z:I:1:map_shift:I:3:n_neighb:I:1:force:R:3:local_energy:R:1:gap_var:R:1:gap_variance_gradient:R:3
C               0.00005179      0.00003613     -0.00008682       6       0       0       0      12     -0.71616740      0.08149946      0.07809209   -152.36801565      0.00469919      0.00753098     -0.00155187     -0.00082503
O              -0.13249936     -1.12387930     -0.32607516       8       0       0       0      14     -0.00977908      0.19278975      0.11863108   -437.72026183      0.00376144     -0.00437837      0.00314623     -0.00002105
O               0.13246048      1.12385218      0.32614034       8       0       0       0      14      0.60777928     -0.29930867     -0.09183241   -438.43012828      0.00381012      0.00944956     -0.00857660     -0.00114853
C               4.52496189      0.32653158      0.25008054       6       0       0       0      15      0.57584140      0.68705888      0.43457017   -153.99792902      0.00306717      0.00582900     -0.00082158     -0.00063726
C               3.47503812     -0.32653161     -0.25008061       6       0       0       0      14     -0.90079627     -1.10620558     -0.51939988   -153.07284990      0.00666219     -0.01240857      0.00762508      0.00899194
H               4.40543032      1.17877744      0.91904030       1       0       0       0      19     -0.24543082      0.30760755      0.29124838    -16.62958607      0.00316126     -0.00051773     -0.00123813     -0.00239676
H               5.54824592      0.03641898      0.01166389       1       0       0       0      15      0.55674287      0.06718716     -0.00289928    -16.58860884      0.00304409     -0.00057028      0.00009126     -0.00015559
H               2.45175452     -0.03641814     -0.01166331       1       0       0       0      14      0.27576879      0.09625601     -0.16517842    -16.04784753      0.01509267     -0.00624351      0.00130748     -0.00380807
H               3.59456914     -1.17877784     -0.91904006       1       0       0       0      19     -0.14395877     -0.02688457     -0.14323174    -16.99462942      0.00546950      0.00130894      0.00001814      0.00000035
9
energy=-1401.8651803681025 cutoff=8.00000000 nneightol=1.20000000 pbc="T T T" Lattice="13.00000000       0.00000000       0.00000000       0.00000000       9.00000000       0.00000000       0.00000000       0.00000000       9.00000000" Properties=species:S:1:pos:R:3:Z:I:1:map_shift:I:3:n_neighb:I:1:force:R:3:local_energy:R:1:gap_var:R:1:gap_variance_gradient:R:3
C               0.03623791      0.00729190     -0.00192878       6       0       0       0      11     -0.74505612     -1.10545797     -0.21021593   -152.51249542      0.00492023      0.00677359     -0.00010572      0.00023409
O              -0.09793585     -1.11454172     -0.32236619       8       0       0       0      13      0.18211817     -0.35800685     -0.11550693   -437.71603066      0.00369555     -0.00185834      0.00561558      0.00105743
O               0.16477460      1.11325286      0.32470263       8       0       0       0      14      1.00420255      1.37973938      0.37681738   -438.35820281      0.00436965      0.01507398     -0.01308322     -0.00202643
C               4.47632090      0.35113115      0.23959719       6       0       0       0      13      0.63181053      0.51306576      0.28167161   -154.04566340      0.00309705      0.00365257     -0.00091760     -0.00031017
C               3.42344857     -0.32801809     -0.23948197       6       0       0       0      14     -1.05740936     -1.05184710     -0.54263154   -153.06032500      0.00659827     -0.01433861      0.00798503      0.00991048
H               4.33450790      1.22445773      0.88106490       1       0       0       0      19     -0.02352392      0.19297191      0.21459003    -16.66680063      0.00340971     -0.00259676     -0.00129544     -0.00240705
H               5.50161783      0.03692530      0.00272954       1       0       0       0      15      0.34573406      0.32043833      0.17200547    -16.58902863      0.00303364     -0.00078407     -0.00042591     -0.00042908
H               2.41611172     -0.00867473      0.01774496       1       0       0       0      14     -0.06137010      0.10373464     -0.16641528    -15.88312879      0.01551335     -0.00943315      0.00249036     -0.00546553
H               3.55798793     -1.17320837     -0.91905555       1       0       0       0      19     -0.27650581      0.00536190     -0.01031481    -17.03350503      0.00567182      0.00351079     -0.00026309     -0.00056373
9
energy=-1401.8590632880964 cutoff=8.00000000 nneightol=1.20000000 pbc="T T T" Lattice="13.00000000       0.00000000       0.00000000       0.00000000       9.00000000       0.00000000       0.00000000       0.00000000       9.00000000" Properties=species:S:1:pos:R:3:Z:I:1:map_shift:I:3:n_neighb:I:1:force:R:3:local_energy:R:1:gap_var:R:1:gap_variance_gradient:R:3
C               0.07149641      0.01355648     -0.00352211       6       0       0       0      11     -0.68180643     -1.83125780     -0.36928953   -152.66915847      0.00516620      0.00511840      0.00204920      0.00168281
O              -0.06268844     -1.10560951     -0.31465380       8       0       0       0      13      0.22967417     -1.09811218     -0.38776671   -437.70023182      0.00360304      0.00239487      0.00856600      0.00200782
O               0.19805930      1.10628393      0.32090652       8       0       0       0      14      1.16001660      2.82598627      0.78923318   -438.24554468      0.00504933      0.01681522     -0.01658550     -0.00278678
C               4.43151751      0.35073398      0.22523782       6       0       0       0      13      0.89855129      0.40363042      0.20902380   -154.07111810      0.00325152     -0.00181085     -0.00125307     -0.00020737
C               3.37123898     -0.33924104     -0.22755453       6       0       0       0      14     -1.28800084     -1.11210808     -0.74206215   -153.06340976      0.00664455     -0.01350250      0.00886588      0.01070335
H               4.27917014      1.24275075      0.84601656       1       0       0       0      18      0.15126641      0.01519576      0.11123391    -16.70896699      0.00366975     -0.00241362     -0.00097153     -0.00196830
H               5.45500532      0.00646598     -0.01489256       1       0       0       0      15      0.14750329      0.57195631      0.33454933    -16.59323956      0.00303130     -0.00125589     -0.00094015     -0.00070676
H               2.38206841      0.02525951      0.05038826       1       0       0       0      13     -0.23263577      0.09222882     -0.17653377    -15.73636567      0.01599285     -0.01122605      0.00225807     -0.00664330
H               3.50456393     -1.17251752     -0.93373198       1       0       0       0      19     -0.38456872      0.13248047      0.23161195    -17.07102824      0.00586140      0.00588042     -0.00198891     -0.00208147
9
energy=-1401.8457401870276 cutoff=8.00000000 nneightol=1.20000000 pbc="T T T" Lattice="13.00000000       0.00000000       0.00000000       0.00000000       9.00000000       0.00000000       0.00000000       0.00000000       9.00000000" Properties=species:S:1:pos:R:3:Z:I:1:map_shift:I:3:n_neighb:I:1:force:R:3:local_energy:R:1:gap_var:R:1:gap_variance_gradient:R:3
C               0.10543378      0.01783904     -0.00539828       6       0       0       0      11     -0.47042634     -2.18710339     -0.46506010   -152.83453457      0.00540039      0.00520171      0.00511051      0.00273836
O              -0.02687552     -1.09733561     -0.31900927       8       0       0       0      13     -0.01880641     -1.68711407     -0.61062309   -437.69369165      0.00354184      0.00698688      0.01105140      0.00241076
O               0.23137509      1.09963573      0.32939502       8       0       0       0      14      1.03774118      3.75942259      1.09450103   -438.13967997      0.00569190      0.01403875     -0.01771900     -0.00355633
C               4.38789117      0.31455811      0.23034328       6       0       0       0      13      1.11420872      0.31957735      0.17524996   -154.09105240      0.00356375     -0.00690220     -0.00099465     -0.00079882
C               3.31460972     -0.35231266     -0.23427335       6       0       0       0      14     -1.06795100     -1.04940069     -1.16183473   -153.08035114      0.00683589     -0.01075233      0.00951288      0.01066588
H               4.23413247      1.19331756      0.87924945       1       0       0       0      19      0.27425287     -0.21390049      0.01040642    -16.73321820      0.00389611     -0.00233401     -0.00041197     -0.00167634
H               5.40642854     -0.05223343     -0.02681625       1       0       0       0      15     -0.00264510      0.75235308      0.50111055    -16.59265264      0.00303583     -0.00174513     -0.00123505     -0.00110734
H               2.34875151      0.07022297      0.06182502       1       0       0       0      14     -0.32627821      0.03345898     -0.15862784    -15.59830077      0.01629813     -0.01169109     -0.00121852     -0.00442779
H               3.44134235     -1.11624331     -1.03142465       1       0       0       0      19     -0.54009572      0.27270666      0.61487781    -17.08225885      0.00606102      0.00719742     -0.00409560     -0.00424838
9
energy=-1401.8392898963148 cutoff=8.00000000 nneightol=1.20000000 pbc="T T T" Lattice="13.00000000       0.00000000       0.00000000       0.00000000       9.00000000       0.00000000       0.00000000       0.00000000       9.00000000" Properties=species:S:1:pos:R:3:Z:I:1:map_shift:I:3:n_neighb:I:1:force:R:3:local_energy:R:1:gap_var:R:1:gap_variance_gradient:R:3
C               0.13751780      0.02009807     -0.00771828       6       0       0       0      11     -0.23180831     -0.97955001     -0.10414953   -152.99534361      0.00567279      0.00602196      0.00705728      0.00284464
O               0.00909428     -1.09023081     -0.31901766       8       0       0       0      13     -0.27291669     -2.29303058     -0.82500889   -437.67781312      0.00357587      0.00919335      0.01238795      0.00237506
O               0.26540774      1.10525191      0.33621485       8       0       0       0      15      0.52790692      3.23188684      0.93149686   -438.09613797      0.00618051      0.00984242     -0.01547151     -0.00344657
C               4.33817333      0.29079949      0.26005533       6       0       0       0      13      0.71220804     -0.08640240     -0.10479650   -154.16328053      0.00398109     -0.00793018      0.00036884     -0.00178386
C               3.25076393     -0.35813224     -0.24844806       6       0       0       0      14     -0.05809614     -0.54187451     -1.34062639   -153.12651549      0.00710110     -0.00845189      0.00881345      0.00916918
H               4.17337447      1.14084811      0.94929930       1       0       0       0      19      0.45763529     -0.29879456      0.01528782    -16.73896511      0.00419744     -0.00372877     -0.00010406     -0.00157962
H               5.35604412     -0.08283319     -0.00281129       1       0       0       0      15     -0.06843699      0.81053779      0.61182656    -16.56837865      0.00304152     -0.00161515     -0.00114864     -0.00149127
H               2.31358071      0.11944542      0.04889039       1       0       0       0      14     -0.44556970     -0.00850895     -0.05411939    -15.43336890      0.01615794     -0.01200684     -0.00667230     -0.00004172
H               3.40361182     -1.00785263     -1.14499004       1       0       0       0      20     -0.62092243      0.16573638      0.87008945    -17.03948650      0.00621998      0.00867510     -0.00523102     -0.00604585
9
energy=-1401.7694152449214 cutoff=8.00000000 nneightol=1.20000000 pbc="T T T" Lattice="13.00000000       0.00000000       0.00000000       0.00000000       9.00000000       0.00000000       0.00000000       0.00000000       9.00000000" Properties=species:S:1:pos:R:3:Z:I:1:map_shift:I:3:n_neighb:I:1:force:R:3:local_energy:R:1:gap_var:R:1:gap_variance_gradient:R:3
C               0.16818982      0.01925811     -0.01085597       6       0       0       0      12     -0.38357046     -0.94983834     -0.11547781   -153.15915941      0.00599874      0.00805259      0.00897707      0.00318163
O               0.04440527     -1.08532600     -0.34703769       8       0       0       0      13     -0.35066561     -2.20381575     -0.88406157   -437.68635034      0.00364021      0.00958403      0.01235964      0.00187414
O               0.29955189      1.09451146      0.36388106       8       0       0       0      15     -0.00984802      3.22709112      1.01854277   -438.00566069      0.00660455      0.00508588     -0.01330433     -0.00362106
C               4.29024726      0.33169093      0.13517325       6       0       0       0      13      0.02332265     -0.73520092     -0.59745403   -154.22046552      0.00436323     -0.00691768      0.00082731     -0.00211437
C               3.18509730     -0.33163707     -0.37103102       6       0       0       0      14      1.11984909      0.19376683     -1.08001309   -153.15487400      0.00721540     -0.00525884      0.00689748      0.00721441
H               4.12515152      1.16231942      0.85018210       1       0       0       0      19      0.65435679     -0.25517924      0.05411361    -16.74673945      0.00460861     -0.00374385      0.00034433     -0.00097934
H               5.30614193     -0.02977613     -0.15103622       1       0       0       0      15     -0.04152083      0.80467088      0.63875752    -16.54686493      0.00304806     -0.00116393     -0.00089666     -0.00154930
H               2.27683292      0.16803800     -0.03668886       1       0       0       0      14     -0.45894776     -0.05700196      0.05532937    -15.25864101      0.01599725     -0.01510285     -0.00940000      0.00314505
H               3.34029757     -0.89302803     -1.32557913       1       0       0       0      21     -0.55297586     -0.02449262      0.91026322    -16.99065989      0.00629790      0.00946466     -0.00580484     -0.00715117
9
energy=-1401.6486997891936 cutoff=8.00000000 nneightol=1.20000000 pbc="T T T" Lattice="13.00000000       0.00000000       0.00000000       0.00000000       9.00000000       0.00000000       0.00000000       0.00000000       9.00000000" Properties=species:S:1:pos:R:3:Z:I:1:map_shift:I:3:n_neighb:I:1:force:R:3:local_energy:R:1:gap_var:R:1:gap_variance_gradient:R:3
C               0.19717056      0.01529159     -0.01448440       6       0       0       0      12     -0.71062160     -0.29183260      0.11585647   -153.31720424      0.00635817      0.01173365      0.00906728      0.00243977
O               0.07874605     -1.08291736     -0.36415313       8       0       0       0      13     -0.32732028     -2.37460569     -0.99776695   -437.66829672      0.00371506      0.00937734      0.01233171      0.00131490
O               0.33353268      1.08758183      0.38129509       8       0       0       0      15     -0.66295815      2.88418943      0.98977841   -437.93444348      0.00685938      0.00230985     -0.01229381     -0.00403651
C               4.23871348      0.37267181      0.05148192       6       0       0       0      13     -0.06611202     -1.24330816     -0.91146966   -154.22287180      0.00461283     -0.00729097      0.00041490     -0.00263698
C               3.12853190     -0.31655123     -0.43968989       6       0       0       0      13      1.76890918      0.73769525     -0.84859406   -153.15268829      0.00712735     -0.00205593      0.00521150      0.00518183
H               4.07244192      1.20770440      0.76264011       1       0       0       0      19      0.76156823     -0.18153203      0.09133944    -16.75473952      0.00491758     -0.00089105      0.00122375     -0.00016503
H               5.25723936      0.01754014     -0.22857483       1       0       0       0      15      0.00685675      0.78011912      0.59581567    -16.54304643      0.00305359     -0.00062106     -0.00059979     -0.00145507
H               2.23978731      0.20012927     -0.08715280       1       0       0       0      14     -0.33100561     -0.15695290      0.09311671    -15.09913940      0.01610735     -0.02069551     -0.00979276      0.00604785
H               3.27610877     -0.84189051     -1.41556376       1       0       0       0      20     -0.43931650     -0.15377243      0.87192396    -16.95626990      0.00637676      0.00813367     -0.00556278     -0.00669075
9
energy=-1401.4769016560924 cutoff=8.00000000 nneightol=1.20000000 pbc="T T T" Lattice="13.00000000       0.00000000       0.00000000       0.00000000       9.00000000       0.00000000       0.00000000       0.00000000       9.00000000" Properties=species:S:1:pos:R:3:Z:I:1:map_shift:I:3:n_neighb:I:1:force:R:3:local_energy:R:1:gap_var:R:1:gap_variance_gradient:R:3
C               0.22484304      0.00876073     -0.01851952       6       0       0       0      12     -1.18732223      0.21906473      0.36225969   -153.43574137      0.00681131      0.01714749      0.00875051      0.00093491
O               0.11292851     -1.08324759     -0.38679483       8       0       0       0      15     -0.31506430     -2.36963461     -1.09979823   -437.65988702      0.00382318      0.00991011      0.01240275      0.00103545
O               0.36643772      1.07768003      0.40174069       8       0       0       0      16     -1.10629738      2.40724923      0.93672022   -437.87080154      0.00711239      0.00395785     -0.01202455     -0.00466277
C               4.18547637      0.41100985     -0.02477955       6       0       0       0      13      0.34806125     -1.39381139     -1.01321976   -154.17488042      0.00484423     -0.01230842     -0.00066587     -0.00319772
C               3.07569563     -0.29983665     -0.50073374       6       0       0       0      13      1.93261265      1.09738532     -0.71505623   -153.14996263      0.00690400     -0.00022282      0.00392751      0.00365537
H               4.02384289      1.24842423      0.68563572       1       0       0       0      19      0.76635548     -0.10956937      0.11230057    -16.76062595      0.00507865      0.00180850      0.00228218      0.00045874
H               5.20943550      0.06864802     -0.29526425       1       0       0       0      15      0.05592373      0.71351264      0.52328843    -16.55108750      0.00305854      0.00006741     -0.00019364     -0.00129686
H               2.20321048      0.22470686     -0.12787901       1       0       0       0      14     -0.10254275     -0.27910849      0.07122208    -14.94617931      0.01650314     -0.02731359     -0.00922489      0.00922174
H               3.20422367     -0.79722035     -1.49368390       1       0       0       0      21     -0.39172645     -0.28508806      0.82228323    -16.92773592      0.00651390      0.00695347     -0.00525399     -0.00614887
9
energy=-1401.2925276565225 cutoff=8.00000000 nneightol=1.20000000 pbc="T T T" Lattice="13.00000000       0.00000000       0.00000000       0.00000000       9.00000000       0.00000000       0.00000000       0.00000000       9.00000000" Properties=species:S:1:pos:R:3:Z:I:1:map_shift:I:3:n_neighb:I:1:force:R:3:local_energy:R:1:gap_var:R:1:gap_variance_gradient:R:3
C               0.25155938      0.00292883     -0.02201956       6       0       0       0      12     -1.32512207      0.62536202      0.53142668   -153.51509558      0.00744507      0.02346381      0.00834185     -0.00015643
O               0.14518918     -1.08725717     -0.40179804       8       0       0       0      14     -0.24296359     -2.12249700     -1.10890571   -437.67899228      0.00399012      0.01033329      0.01217305      0.00124432
O               0.39804621      1.07273027      0.41558899       8       0       0       0      16     -1.29835581      1.78620104      0.72882070   -437.82231732      0.00741616      0.00641739     -0.01173721     -0.00481981
C               4.13756630      0.39105391      0.04186808       6       0       0       0      13      0.62695961     -1.30791013     -0.91022003   -154.08943145      0.00515436     -0.01733362     -0.00214465     -0.00442178
C               3.03771265     -0.32615804     -0.45178259       6       0       0       0      13      1.77763438      1.26895133     -0.58163931   -153.16017326      0.00665168     -0.00016368      0.00312625      0.00268350
H               3.97380991      1.23896050      0.74004037       1       0       0       0      19      0.69313487     -0.06261233      0.14527271    -16.76486454      0.00514999      0.00335020      0.00316301      0.00090720
H               5.17325293      0.04921946     -0.17613417       1       0       0       0      15      0.08103435      0.60781367      0.42200455    -16.56627928      0.00306564      0.00094235      0.00030847     -0.00107236
H               2.17488346      0.21791587     -0.09438861       1       0       0       0      14      0.11422250     -0.39103533      0.02405423    -14.79370848      0.01715939     -0.03412134     -0.00797770      0.01149515
H               3.16872433     -0.81115984     -1.44995834       1       0       0       0      20     -0.42654424     -0.40427328      0.74918618    -16.90166547      0.00665375      0.00711160     -0.00525305     -0.00585979
9
energy=-1401.1215339006512 cutoff=8.00000000 nneightol=1.20000000 pbc="T T T" Lattice="13.00000000       0.00000000       0.00000000       0.00000000       9.00000000       0.00000000       0.00000000       0.00000000       9.00000000" Properties=species:S:1:pos:R:3:Z:I:1:map_shift:I:3:n_neighb:I:1:force:R:3:local_energy:R:1:gap_var:R:1:gap_variance_gradient:R:3
C               0.27722241     -0.00123322     -0.02461026       6       0       0       0      12     -1.27646136      0.86102044      0.61106533   -153.56633470      0.00825304      0.02831170      0.00843869     -0.00030094
O               0.17622772     -1.09564929     -0.40525790       8       0       0       0      14     -0.23426829     -1.63391560     -0.96467312   -437.73630974      0.00418181      0.00992722      0.01146792      0.00148965
O               0.42859616      1.07522640      0.41921634       8       0       0       0      16     -1.28356332      1.05758701      0.42084952   -437.79217663      0.00774254      0.00916218     -0.01155677     -0.00463976
C               4.08961840      0.35332970      0.14098335       6       0       0       0      13      0.89142525     -1.05387098     -0.65228974   -153.97561862      0.00547284     -0.01904589     -0.00307114     -0.00583399
C               3.00214609     -0.36614008     -0.37341488       6       0       0       0      14      1.46334812      1.34216793     -0.48480789   -153.18509254      0.00646653     -0.00127497      0.00274115      0.00216767
H               3.92819412      1.21846720      0.81928280       1       0       0       0      19      0.49546326     -0.05626143      0.14658344    -16.76696496      0.00521634      0.00258986      0.00317811      0.00081947
H               5.13682035      0.00905972     -0.00932785       1       0       0       0      15      0.07568443      0.46217498      0.29595597    -16.58488831      0.00307789      0.00193443      0.00090747     -0.00073204
H               2.14865643      0.20213746     -0.04374800       1       0       0       0      15      0.28426712     -0.47443683     -0.00857762    -14.63936943      0.01803079     -0.03982182     -0.00663369      0.01299095
H               3.13779625     -0.85199224     -1.36921302       1       0       0       0      20     -0.41589521     -0.50446551      0.63589413    -16.87477897      0.00671695      0.00821729     -0.00547174     -0.00596100
9
energy=-1400.9570551829634 cutoff=8.00000000 nneightol=1.20000000 pbc="T T T" Lattice="13.00000000       0.00000000       0.00000000       0.00000000       9.00000000       0.00000000       0.00000000       0.00000000       9.00000000" Properties=species:S:1:pos:R:3:Z:I:1:map_shift:I:3:n_neighb:I:1:force:R:3:local_energy:R:1:gap_var:R:1:gap_variance_gradient:R:3
C               0.30117370     -0.00171992     -0.02567978       6       0       0       0      12     -1.06738957      1.21100784      0.70689850   -153.59507348      0.00910393      0.02873921      0.00794861     -0.00041051
O               0.20661002     -1.10750803     -0.38701094       8       0       0       0      13     -0.37796404     -1.08527406     -0.73122828   -437.82271239      0.00436309      0.00937438      0.01056623      0.00137858
O               0.45784936      1.09224641      0.40596917       8       0       0       0      15     -1.23607830      0.07412084     -0.00610626   -437.78823360      0.00806839      0.01246441     -0.01133882     -0.00404477
C               4.03901533      0.31887627      0.24613436       6       0       0       0      13      1.17537033     -0.69272427     -0.29254010   -153.83698096      0.00572673     -0.01901710     -0.00337728     -0.00700662
C               2.96521980     -0.40661794     -0.28031039       6       0       0       0      14      1.09217739      1.35494702     -0.44587924   -153.21873269      0.00640555     -0.00283594      0.00266137      0.00185666
H               3.88526811      1.21149532      0.89132820       1       0       0       0      19      0.30680790     -0.05441545      0.12907647    -16.76496065      0.00530152      0.00254112      0.00324047      0.00073483
H               5.09555542     -0.02782958      0.17386324       1       0       0       0      15      0.03461295      0.27948999      0.14675133    -16.60342913      0.00309740      0.00297519      0.00160982     -0.00027928
H               2.12196823      0.18993035      0.01080095       1       0       0       0      15      0.39357839     -0.51671134     -0.00980704    -14.48343413      0.01904429     -0.04338714     -0.00545556      0.01375021
H               3.10388029     -0.91263937     -1.26353218       1       0       0       0      20     -0.32111506     -0.57044056      0.50283463    -16.84349815      0.00667321      0.00914587     -0.00585482     -0.00597910
9
energy=-1400.7839058143929 cutoff=8.00000000 nneightol=1.20000000 pbc="T T T" Lattice="13.00000000       0.00000000       0.00000000       0.00000000       9.00000000       0.00000000       0.00000000       0.00000000       9.00000000" Properties=species:S:1:pos:R:3:Z:I:1:map_shift:I:3:n_neighb:I:1:force:R:3:local_energy:R:1:gap_var:R:1:gap_variance_gradient:R:3
C               0.32333459      0.00066114     -0.02470487       6       0       0       0      12     -0.88628201      0.66931126      0.54067172   -153.62314377      0.00991816      0.02601404      0.00880402     -0.00175187
O               0.23636499     -1.12112349     -0.36821057       8       0       0       0      14     -0.65603566     -0.09682477     -0.30894253   -437.94646861      0.00451300      0.00927936      0.00937931      0.00031092
O               0.48601318      1.10995127      0.38615586       8       0       0       0      15     -1.19476364     -0.56754467     -0.19174816   -437.78373242      0.00840609      0.01590929     -0.01164774     -0.00458940
C               3.99376543      0.35866896      0.13711280       6       0       0       0      14      1.53544582     -0.23770401      0.01006948   -153.67614780      0.00590254     -0.01944713     -0.00359705     -0.00687445
C               2.91920131     -0.39012561     -0.34200738       6       0       0       0      14      0.69107126      1.33617461     -0.46894849   -153.25219002      0.00648185     -0.00414777      0.00263448      0.00186991
H               3.86989846      1.27246031      0.76136131       1       0       0       0      19      0.15658966     -0.05327172      0.08389622    -16.75722138      0.00540626      0.00339046      0.00348071      0.00067932
H               5.06142109      0.03467903      0.07978889       1       0       0       0      15     -0.02525533      0.06117263     -0.00782406    -16.61832513      0.00312454      0.00397988      0.00248260      0.00002600
H               2.09103713      0.21428918     -0.03738880       1       0       0       0      15      0.48451513     -0.50296836     -0.01834572    -14.32104583      0.02019307     -0.04359068     -0.00558650      0.01645225
H               3.01142410     -0.91295283     -1.31898767       1       0       0       0      20     -0.10528524     -0.60834497      0.36117154    -16.80563085      0.00657010      0.00861256     -0.00594983     -0.00612268
9
energy=-1400.5733336140272 cutoff=8.00000000 nneightol=1.20000000 pbc="T T T" Lattice="13.00000000       0.00000000       0.00000000       0.00000000       9.00000000       0.00000000       0.00000000       0.00000000       9.00000000" Properties=species:S:1:pos:R:3:Z:I:1:map_shift:I:3:n_neighb:I:1:force:R:3:local_energy:R:1:gap_var:R:1:gap_variance_gradient:R:3
C               0.34476715      0.00533023     -0.02258239       6       0       0       0      12     -0.65777200      0.71071432      0.50789383   -153.63667767      0.01059463      0.02175995      0.00815048     -0.00207653
O               0.26523691     -1.13503835     -0.32475158       8       0       0       0      14     -1.01511894      0.65056473     -0.03932340   -438.06080161      0.00467754      0.01017382      0.00819366     -0.00073823
O               0.51332551      1.14013967      0.35190803       8       0       0       0      14     -1.24262612     -1.53437436     -0.52368319   -437.80235877      0.00876173      0.01885740     -0.01166624     -0.00375286