9
Lattice="13.0 0.0 0.0 0.0 9.0 0.0 0.0 0.0 9.0" Properties=species:S:1:pos:R:3:momenta:R:3:forces:R:3 EPS_SCF=1e-06 energy=-1400.885518520806 units=gap_units Integrated_spin_density=6.55109e-05 opt_dir=/home/tks32/dft_pbe/apr_8_opt_fragments_subset/singlepoint_1_CO2 time=0.0 free_energy=-1400.885518520806 pbc="T T T"
C       -0.45663581       0.03898172       0.04940162       5.45409721       0.81308744      -0.21939016       0.23352879       0.26061252      -0.05704931
O       -1.06255255      -0.94022173      -0.16653406       6.91856637       1.60105312       0.69227000       0.07702864      -0.25298340      -0.01640616
O        0.13740333       1.03108439       0.26652954       6.44529771      -2.41414056      -0.47287984      -0.06940344       0.38678904      -0.12343219
C        4.66392811       0.39914000       0.27696729      -5.69597901       0.88593916       0.41407752       0.03636260      -0.10547207      -0.00390419
C        3.79329218      -0.45400668      -0.31095941      -6.07650281      -1.32504139       0.17494715      -0.12945900      -0.05127847      -0.00541769
H        4.36087205       1.16181951       1.00248246      -0.67682574      -0.05175688      -0.30347750      -0.23026684      -0.31136405       0.04242442
H        5.73694736       0.33266319       0.07188071      -0.20088037      -0.43346916      -0.14053191       0.00237292       0.17174721      -0.01868189
H        2.73544441      -0.41791744      -0.09513853      -0.11295227       0.37406457       0.09108301       0.15564704      -0.01537292       0.15237329
H        4.09131374      -1.15153354      -1.09465052      -0.29107960       0.55026370      -0.23609827      -0.07581072      -0.08267786       0.03009373
9
Lattice="13.0 0.0 0.0 0.0 9.0 0.0 0.0 0.0 9.0" Properties=species:S:1:pos:R:3:momenta:R:3:forces:R:3 EPS_SCF=1e-06 energy=-1400.885518520806 units=gap_units Integrated_spin_density=6.55109e-05 opt_dir=/home/tks32/dft_pbe/apr_8_opt_fragments_subset/singlepoint_1_CO2 time=5.0 free_energy=-1400.885518520806 pbc="T T T"
C        0.12469225      -0.00859206      -0.02368849       3.65034013      -0.26394012      -0.45399097       0.23352879       0.26061252      -0.05704931
O        0.04479602      -1.12380684      -0.41511589       5.67886877       0.51872535       0.32313584       0.07702864      -0.25298340      -0.01640616
O        0.20807149       1.09725896       0.36575693       5.56681262       0.00639366       0.23174546      -0.06940344       0.38678904      -0.12343219
C        4.35684487       0.31221385       0.20438232      -5.65370070       0.16709423      -0.13705955       0.03636260      -0.10547207      -0.00390419
C        3.24560136      -0.32130847      -0.30438249      -6.65067701      -1.34894459       0.20491727      -0.12945900      -0.05127847      -0.00541769
H        4.09435269       1.12730662       0.89153093      -0.71443047       0.30197197       0.07206222      -0.23026684      -0.31136405       0.04242442
H        5.44088066       0.13013143       0.07000507      -0.81175678       0.09106857       0.19400007       0.00237292       0.17174721      -0.01868189
H        2.32993714       0.24344463      -0.01680879      -0.62076290       0.40360439       0.04915803       0.15564704      -0.01537292       0.15237329
H        3.13134958      -1.16968287      -0.98746371      -0.44469366       0.12402654      -0.48396837      -0.07581072      -0.08267786       0.03009373
9
Lattice="13.0 0.0 0.0 0.0 9.0 0.0 0.0 0.0 9.0" Properties=species:S:1:pos:R:3:momenta:R:3:forces:R:3 EPS_SCF=1e-06 energy=-1400.885518520806 units=gap_units Integrated_spin_density=6.55109e-05 opt_dir=/home/tks32/dft_pbe/apr_8_opt_fragments_subset/singlepoint_1_CO2 time=10.0 free_energy=-1400.885518520806 pbc="T T T"
C        0.07496407       0.03414396      -0.02620990       2.77249412       0.08529656       0.01220406       0.23352879       0.26061252      -0.05704931
O        0.24191327      -1.05449186      -0.44106760       4.91895693      -2.08326526      -0.62353781       0.07702864      -0.25298340      -0.01640616
O       -0.03842064       1.12645637       0.38995692       4.72341975       2.39874287       0.71189124      -0.06940344       0.38678904      -0.12343219
C        4.22672904       0.31893637       0.21790376      -6.44971211      -0.17985719      -0.55472098       0.03636260      -0.10547207      -0.00390419
C        3.10956563      -0.27979923      -0.31730003      -5.18922382      -0.13882339       0.30907071      -0.12945900      -0.05127847      -0.00541769
H        3.98070435       1.17996971       0.84528338      -0.04554149      -0.14498976      -0.21003843      -0.23026684      -0.31136405       0.04242442
H        5.29839752       0.06406798       0.14468873      -0.05998499       0.19811584       0.40091311       0.00237292       0.17174721      -0.01868189
H        2.15002990       0.21921726       0.01121077       0.09223828      -0.22963216      -0.17298619       0.15564704      -0.01537292       0.15237329
H        2.99887098      -1.10988903      -1.02822942      -0.76264668       0.09441248       0.12720430      -0.07581072      -0.08267786       0.03009373
9
Lattice="13.0 0.0 0.0 0.0 9.0 0.0 0.0 0.0 9.0" Properties=species:S:1:pos:R:3:momenta:R:3:forces:R:3 EPS_SCF=1e-06 energy=-1400.885518520806 units=gap_units Integrated_spin_density=6.55109e-05 opt_dir=/home/tks32/dft_pbe/apr_8_opt_fragments_subset/singlepoint_1_CO2 time=15.0 free_energy=-1400.885518520806 pbc="T T T"
C       -0.00048260       0.00183590      -0.03909551       2.33654373       0.26232335       0.26478954       0.23352879       0.26061252      -0.05704931
O        0.12762631      -1.08997805      -0.45536665       4.37224069      -1.20824535      -0.51552897       0.07702864      -0.25298340      -0.01640616
O       -0.08696396       1.09697551       0.38610787       3.98169156       0.97857440       0.26384214      -0.06940344       0.38678904      -0.12343219
C        4.16519570       0.32834457       0.23608740      -4.62233648      -0.34141760      -0.36976342       0.03636260      -0.10547207      -0.00390419
C        3.01453749      -0.23780545      -0.25477673      -3.89431749      -0.19636519      -0.11834027      -0.12945900      -0.05127847      -0.00541769
H        3.94762810       1.24461225       0.79197199      -0.28084633       0.34124138      -0.06065118      -0.23026684      -0.31136405       0.04242442
H        5.22401018       0.02235834       0.18896386      -0.53069754       0.07464971       0.27919389       0.00237292       0.17174721      -0.01868189
H        2.11313942       0.35356541       0.04645939      -0.68416416       0.40985338       0.27520441       0.15564704      -0.01537292       0.15237329
H        2.87403731      -1.14146985      -0.86894298      -0.67811398      -0.32061408      -0.01874615      -0.07581072      -0.08267786       0.03009373
9
Lattice="13.0 0.0 0.0 0.0 9.0 0.0 0.0 0.0 9.0" Properties=species:S:1:pos:R:3:momenta:R:3:forces:R:3 EPS_SCF=1e-06 energy=-1400.885518520806 units=gap_units Integrated_spin_density=6.55109e-05 opt_dir=/home/tks32/dft_pbe/apr_8_opt_fragments_subset/singlepoint_1_CO2 time=20.0 free_energy=-1400.885518520806 pbc="T T T"
C       -0.15228781      -0.06838918      -0.08656672       1.26734939      -0.79603220      -0.02023943       0.23352879       0.26061252      -0.05704931
O       -0.20923543      -1.19838699      -0.44065264       3.13083309       1.08979548       0.10967757       0.07702864      -0.25298340      -0.01640616
O       -0.09939528       1.05069151       0.26587752       3.31985021      -0.70705770      -0.06075515      -0.06940344       0.38678904      -0.12343219
C        4.08106558       0.34527217       0.26057288      -3.10367432       0.80846697       0.24597333       0.03636260      -0.10547207      -0.00390419
C        2.89764217      -0.20050904      -0.17398152      -3.34852949       0.30095228      -0.36421173      -0.12945900      -0.05127847      -0.00541769
H        3.97275304       1.35786037       0.67267501      -0.65284155      -0.17558439      -0.33752090      -0.23026684      -0.31136405       0.04242442
H        5.11757492      -0.03837421       0.25344639      -0.51833688      -0.42689117       0.02305422       0.00237292       0.17174721      -0.01868189
H        2.04451411       0.37752238       0.21666554       0.23997464      -0.01191258       0.05718169       0.15564704      -0.01537292       0.15237329
H        2.77349699      -1.07163429      -0.84098432      -0.33462509      -0.08173670       0.34684041      -0.07581072      -0.08267786       0.03009373
9
Lattice="13.0 0.0 0.0 0.0 9.0 0.0 0.0 0.0 9.0" Properties=species:S:1:pos:R:3:momenta:R:3:forces:R:3 EPS_SCF=1e-06 energy=-1400.885518520806 units=gap_units Integrated_spin_density=6.55109e-05 opt_dir=/home/tks32/dft_pbe/apr_8_opt_fragments_subset/singlepoint_1_CO2 time=25.0 free_energy=-1400.885518520806 pbc="T T T"
C       -0.06438272      -0.22399444      -0.13202711      -0.31770586       0.25132962       0.34276347       0.23352879       0.26061252      -0.05704931
O       -0.16777437      -1.37202270      -0.42418945       1.00383104       1.09143062       0.28473266       0.07702864      -0.25298340      -0.01640616
O        0.03790855       0.90323191       0.19870081       2.43136289      -1.85665056      -0.39187990      -0.06940344       0.38678904      -0.12343219
C        4.00950119       0.34030660       0.21994669      -2.22057090       0.13577677       0.45818050       0.03636260      -0.10547207      -0.00390419
C        2.72158941      -0.07182605      -0.09636756       0.14724081       0.00300996      -0.50332956      -0.12945900      -0.05127847      -0.00541769
H        4.11763475       1.35168685       0.67202318      -0.58911413       0.24785332      -0.22211539      -0.23026684      -0.31136405       0.04242442
H        4.95268398      -0.22760154       0.26385682      -0.20926242      -0.21243014       0.02755280       0.00237292       0.17174721      -0.01868189
H        1.98857497       0.69151741       0.03562956      -0.18343484       0.52544953       0.14742926       0.15564704      -0.01537292       0.15237329
H        2.49213846      -1.02937459      -0.60943030      -0.06234660      -0.18576911      -0.14333385      -0.07581072      -0.08267786       0.03009373
9
Lattice="13.0 0.0 0.0 0.0 9.0 0.0 0.0 0.0 9.0" Properties=species:S:1:pos:R:3:momenta:R:3:forces:R:3 EPS_SCF=1e-06 energy=-1400.885518520806 units=gap_units Integrated_spin_density=6.55109e-05 opt_dir=/home/tks32/dft_pbe/apr_8_opt_fragments_subset/singlepoint_1_CO2 time=30.0 free_energy=-1400.885518520806 pbc="T T T"
C       -0.21453517      -0.14187940       0.07460875      -2.03312722      -0.04197946       0.02194332       0.23352879       0.26061252      -0.05704931
O       -0.23240567      -1.23692089      -0.36138428      -1.62150469      -0.48791666       0.32452459       0.07702864      -0.25298340      -0.01640616
O       -0.15917819       0.95678221       0.50359138       2.13271085      -1.03215456      -0.25382116      -0.06940344       0.38678904      -0.12343219
C        3.92021576       0.43209356       0.26523482      -0.83114675       0.36644608       0.78994268       0.03636260      -0.10547207      -0.00390419
C        2.80439838      -0.10432772      -0.32085763       2.42725265      -0.06778359      -0.59601751      -0.12945900      -0.05127847      -0.00541769
H        3.87298549       1.44827185       0.69035630       0.01159795      -0.22727049      -0.27573882      -0.23026684      -0.31136405       0.04242442
H        4.88887678      -0.06488452       0.44381603      -0.22301018       0.60666883       0.19787840       0.00237292       0.17174721      -0.01868189
H        2.06292764       0.65271127      -0.58849381       0.11705252       0.51433217      -0.17518715       0.15564704      -0.01537292       0.15237329
H        2.75403420      -1.13203634      -0.70452335       0.02017485       0.36965768      -0.03352437      -0.07581072      -0.08267786       0.03009373
9
Lattice="13.0 0.0 0.0 0.0 9.0 0.0 0.0 0.0 9.0" Properties=species:S:1:pos:R:3:momenta:R:3:forces:R:3 EPS_SCF=1e-06 energy=-1400.885518520806 units=gap_units Integrated_spin_density=6.55109e-05 opt_dir=/home/tks32/dft_pbe/apr_8_opt_fragments_subset/singlepoint_1_CO2 time=35.0 free_energy=-1400.885518520806 pbc="T T T"
C       -0.13440786      -0.07035001       0.17558506      -2.46152668      -0.57666801       0.26503282       0.23352879       0.26061252      -0.05704931
O       -0.34181976      -1.12898459      -0.30707188      -3.21953655      -0.59652482       0.57322067       0.07702864      -0.25298340      -0.01640616
O        0.20799672       0.95235997       0.65426940       2.02175006      -0.63704048      -0.12486502      -0.06940344       0.38678904      -0.12343219
C        3.81792682       0.56991128       0.26402003       0.14812212       0.08261467       0.63770855       0.03636260      -0.10547207      -0.00390419
C        2.85048540      -0.05490298      -0.48023295       3.63768155       0.01655986      -0.60389461      -0.12945900      -0.05127847      -0.00541769
H        3.63486736       1.54635829       0.74543930       0.21258278       0.50586996      -0.09648188      -0.23026684      -0.31136405       0.04242442
H        4.77934716       0.11088067       0.53775735       0.27264163       0.67115135       0.41099176       0.00237292       0.17174721      -0.01868189
H        2.08264187       0.57741054      -0.95194882      -0.15396494       0.06210187      -0.67904047       0.15564704      -0.01537292       0.15237329
H        3.00551245      -1.08929584      -0.80305699      -0.45774997       0.47193559      -0.38267182      -0.07581072      -0.08267786       0.03009373
9
Lattice="13.0 0.0 0.0 0.0 9.0 0.0 0.0 0.0 9.0" Properties=species:S:1:pos:R:3:momenta:R:3:forces:R:3 EPS_SCF=1e-06 energy=-1400.885518520806 units=gap_units Integrated_spin_density=6.55109e-05 opt_dir=/home/tks32/dft_pbe/apr_8_opt_fragments_subset/singlepoint_1_CO2 time=40.0 free_energy=-1400.885518520806 pbc="T T T"
C       -0.10012353      -0.04300595       0.14681942      -1.84174930       0.08776242       0.23709142       0.23352879       0.26061252      -0.05704931
O       -0.66609837      -1.01212030      -0.18690770      -4.07885110      -0.26193226       0.48889950       0.07702864      -0.25298340      -0.01640616
O        0.60952427       0.84344659       0.49293466       1.64979813      -1.41445752      -0.12201983      -0.06940344       0.38678904      -0.12343219
C        3.69417502       0.68756337       0.26349786       1.83062567       1.89343391       1.31254236       0.03636260      -0.10547207      -0.00390419
C        2.86220750       0.02269246      -0.59474297       3.27375021      -1.21804969      -1.67947940      -0.12945900      -0.05127847      -0.00541769
H        3.35806499       1.63539160       0.68324388       0.15074160       0.02871487      -0.02275512      -0.23026684      -0.31136405       0.04242442
H        4.69804547       0.35755727       0.55835801      -0.29226259       0.19844652       0.08316324       0.00237292       0.17174721      -0.01868189
H        1.90337662       0.48530603      -0.79771525      -0.63318020       0.17845348      -0.42574139       0.15564704      -0.01537292       0.15237329
H        3.18604502      -0.92975904      -1.04693720      -0.05887241       0.50762827       0.12829921      -0.07581072      -0.08267786       0.03009373
9
Lattice="13.0 0.0 0.0 0.0 9.0 0.0 0.0 0.0 9.0" Properties=species:S:1:pos:R:3:momenta:R:3:forces:R:3 EPS_SCF=1e-06 energy=-1400.885518520806 units=gap_units Integrated_spin_density=6.55109e-05 opt_dir=/home/tks32/dft_pbe/apr_8_opt_fragments_subset/singlepoint_1_CO2 time=45.0 free_energy=-1400.885518520806 pbc="T T T"
C        0.28140796      -0.07156305       0.04157390      -0.70529739      -0.21554461       0.03084061       0.23352879       0.26061252      -0.05704931
O       -0.21108262      -1.08002849      -0.29537371      -4.69629755       0.22684929       0.67106553       0.07702864      -0.25298340      -0.01640616
O        1.04946063       0.83487864       0.37518029       0.95080043      -2.22288219      -0.14487826      -0.06940344       0.38678904      -0.12343219
C        3.59999862       0.54650900       0.29766299       0.71031219       2.17650763       0.49257679       0.03636260      -0.10547207      -0.00390419
C        3.18967152      -0.34629999      -0.46147814       3.97389217      -0.66991614      -1.00108177      -0.12945900      -0.05127847      -0.00541769
H        3.21029656       1.58106551       0.30260914      -0.33863996      -0.06101674      -0.15200695      -0.23026684      -0.31136405       0.04242442
H        4.51900553       0.37703018       0.91895513       0.23059481      -0.25800777       0.25961393       0.00237292       0.17174721      -0.01868189
H        1.41028880       1.33396901      -0.50411408      -0.15708762       0.78027349      -0.30561937       0.15564704      -0.01537292       0.15237329
H        2.49271242      -0.88323390      -1.11698117       0.03172293       0.24373704       0.14948950      -0.07581072      -0.08267786       0.03009373
9
Lattice="13.0 0.0 0.0 0.0 9.0 0.0 0.0 0.0 9.0" Properties=species:S:1:pos:R:3:momenta:R:3:forces:R:3 EPS_SCF=1e-06 energy=-1400.885518520806 units=gap_units Integrated_spin_density=6.55109e-05 opt_dir=/home/tks32/dft_pbe/apr_8_opt_fragments_subset/singlepoint_1_CO2 time=50.0 free_energy=-1400.885518520806 pbc="T T T"
C        0.25664302      -0.03454023       0.04910953       0.49901376       0.50477729      -0.23107253       0.23352879       0.26061252      -0.05704931
O       -0.22714305      -1.03644006      -0.31963316      -5.57987722       0.25231586       0.91248780       0.07702864      -0.25298340      -0.01640616
O        1.02101069       0.86908618       0.39700630       0.61525100      -2.78051949      -0.32714727      -0.06940344       0.38678904      -0.12343219
C        3.56153340       0.60022191       0.28162094       0.41937185       0.54670914      -0.65103739       0.03636260      -0.10547207      -0.00390419
C        3.16049159      -0.26874498      -0.50725886       4.71549964       0.96114813       0.09274312      -0.12945900      -0.05127847      -0.00541769
H        3.15771893       1.62869553       0.29328250      -0.03153091       0.09598405       0.01566817      -0.23026684      -0.31136405       0.04242442
H        4.45627147       0.41427343       0.93151663      -0.29078840       0.07017909       0.04995092       0.00237292       0.17174721      -0.01868189
H        1.34639591       1.40909335      -0.47623278      -0.58430871       0.59655093       0.20437585       0.15564704      -0.01537292       0.15237329
H        2.47983474      -0.84968904      -1.14548365       0.23736901      -0.24714500      -0.06596865      -0.07581072      -0.08267786       0.03009373
9
Lattice="13.0 0.0 0.0 0.0 9.0 0.0 0.0 0.0 9.0" Properties=species:S:1:pos:R:3:momenta:R:3:forces:R:3 EPS_SCF=1e-06 energy=-1400.885518520806 units=gap_units Integrated_spin_density=6.55109e-05 opt_dir=/home/tks32/dft_pbe/apr_8_opt_fragments_subset/singlepoint_1_CO2 time=55.0 free_energy=-1400.885518520806 pbc="T T T"
C        0.28049093      -0.05680292      -0.00575014       1.06440032      -0.54968677      -0.79122539       0.23352879       0.26061252      -0.05704931
O       -0.21110109      -1.01382516      -0.46691459      -5.75617310       1.04587006       0.95316357       0.07702864      -0.25298340      -0.01640616
O        1.04577257       0.79997839       0.44798120       0.64599825      -2.14366210      -0.31912996      -0.06940344       0.38678904      -0.12343219
C        3.57801338       0.63024304       0.30824419      -0.22386827      -0.00384342      -1.25328879       0.03636260      -0.10547207      -0.00390419
C        3.19318684      -0.24987107      -0.47422371       3.50028049       1.91148000       0.25727335      -0.12945900      -0.05127847      -0.00541769
H        3.17483817       1.65554483       0.27490327       0.38974848      -0.00479165       0.18322569      -0.23026684      -0.31136405       0.04242442
H        4.46274529       0.49147434       0.98064260      -0.17680896       0.25606245       0.40591866       0.00237292       0.17174721      -0.01868189
H        1.31179038       1.51348215      -0.30563835      -0.35906204       0.15702046       0.34263913       0.15564704      -0.01537292       0.15237329
H        2.56992192      -1.02859586      -0.93111841       0.91548482      -0.66844903       0.22142373      -0.07581072      -0.08267786       0.03009373
9
Lattice="13.0 0.0 0.0 0.0 9.0 0.0 0.0 0.0 9.0" Properties=species:S:1:pos:R:3:momenta:R:3:forces:R:3 EPS_SCF=1e-06 energy=-1400.885518520806 units=gap_units Integrated_spin_density=6.55109e-05 opt_dir=/home/tks32/dft_pbe/apr_8_opt_fragments_subset/singlepoint_1_CO2 time=60.0 free_energy=-1400.885518520806 pbc="T T T"
C        0.17204285      -0.11460413       0.09314541       0.78033896      -2.00530505      -1.12746935       0.23352879       0.26061252      -0.05704931
O       -0.73797756      -0.74659006      -0.29210497      -5.80370321       2.05749461       0.81227059       0.07702864      -0.25298340      -0.01640616
O        1.25194160       0.39147815       0.44654580       1.38293738      -1.64515584      -0.14039356      -0.06940344       0.38678904      -0.12343219
C        3.71323437       0.72892976       0.26371871       0.79534822       1.11180849       0.57583317       0.03636260      -0.10547207      -0.00390419
C        3.53791966      -0.26531802      -0.46239914       2.64091091       0.54924985      -0.86729830      -0.12945900      -0.05127847      -0.00541769
H        3.25266294       1.70937792       0.01455781      -0.08280224       0.22018502      -0.16286257      -0.23026684      -0.31136405       0.04242442
H        3.95469080       0.74645655       1.33589388      -0.40570651       0.25370967       0.20956068       0.00237292       0.17174721      -0.01868189
H        1.33491256       1.32202079      -0.05836408      -0.10687573       0.15235281       0.51978462       0.15564704      -0.01537292       0.15237329
H        3.16024071      -1.07370850      -1.08984586       0.79955222      -0.69433957       0.18057470      -0.07581072      -0.08267786       0.03009373
9
Lattice="13.0 0.0 0.0 0.0 9.0 0.0 0.0 0.0 9.0" Properties=species:S:1:pos:R:3:momenta:R:3:forces:R:3 EPS_SCF=1e-06 energy=-1400.885518520806 units=gap_units Integrated_spin_density=6.55109e-05 opt_dir=/home/tks32/dft_pbe/apr_8_opt_fragments_subset/singlepoint_1_CO2 time=65.0 free_energy=-1400.885518520806 pbc="T T T"
C        0.11688713      -0.26636398      -0.01591276       0.74494469      -1.47498520      -0.57663261       0.23352879       0.26061252      -0.05704931
O       -0.92063485      -0.73091101      -0.28937788      -5.35157916       1.74973118       0.87583515       0.07702864      -0.25298340      -0.01640616
O        1.28456559       0.14295371       0.18368080       1.49693089      -1.99942738      -0.19525842      -0.06940344       0.38678904      -0.12343219
C        3.81527595       0.84061103       0.31739494       1.07978784       2.09160273       0.49727749       0.03636260      -0.10547207      -0.00390419
C        3.59576886      -0.19347304      -0.34724972       1.81616457       0.33030697      -1.25473788      -0.12945900      -0.05127847      -0.00541769
H        3.69235365       1.83675224      -0.13334911      -0.22449762      -0.38263457      -0.50226794      -0.23026684      -0.31136405       0.04242442
H        3.84324917       0.86378597       1.41388182      -0.54186581       0.16297548       0.48820618       0.00237292       0.17174721      -0.01868189
H        1.15694500       1.17037926       0.22266221      -0.06041522      -0.15412352       0.52241531       0.15564704      -0.01537292       0.15237329
H        3.21434062      -1.09061929      -0.78774195       1.04052982      -0.32344570       0.14516272      -0.07581072      -0.08267786       0.03009373
9
Lattice="13.0 0.0 0.0 0.0 9.0 0.0 0.0 0.0 9.0" Properties=species:S:1:pos:R:3:momenta:R:3:forces:R:3 EPS_SCF=1e-06 energy=-1400.885518520806 units=gap_units Integrated_spin_density=6.55109e-05 opt_dir=/home/tks32/dft_pbe/apr_8_opt_fragments_subset/singlepoint_1_CO2 time=70.0 free_energy=-1400.885518520806 pbc="T T T"
C        0.05215206      -0.28530912       0.06746352      -0.39399617      -1.01997062       0.04059905       0.23352879       0.26061252      -0.05704931
O       -0.93768873      -0.76423579      -0.34164348      -4.00513235       2.35167613       0.34483729       0.07702864      -0.25298340      -0.01640616
O        1.23418594       0.07976345       0.28086499       2.21444724      -3.24179727      -0.11399855      -0.06940344       0.38678904      -0.12343219
C        3.73869753       0.86653042       0.28234212       0.89524528       1.03586957       0.05377025       0.03636260      -0.10547207      -0.00390419
C        3.62842942      -0.19544944      -0.32920278       1.68860665       0.66795496      -0.18516531      -0.12945900      -0.05127847      -0.00541769
H        3.50552276       1.82148512      -0.21551255      -0.30562098      -0.05781772      -0.61317547      -0.23026684      -0.31136405       0.04242442
H        3.73120948       0.92343561       1.37924356      -0.54710784       0.24739036      -0.22915773       0.00237292       0.17174721      -0.01868189
H        1.18641019       1.13319931       0.22263121      -0.36111045      -0.25262054       0.30067438       0.15564704      -0.01537292       0.15237329
H        3.60451593      -1.20805751      -0.69772643       0.81466861       0.26931513       0.40161609      -0.07581072      -0.08267786       0.03009373
9
Lattice="13.0 0.0 0.0 0.0 9.0 0.0 0.0 0.0 9.0" Properties=species:S:1:pos:R:3:momenta:R:3:forces:R:3 EPS_SCF=1e-06 energy=-1400.885518520806 units=gap_units Integrated_spin_density=6.55109e-05 opt_dir=/home/tks32/dft_pbe/apr_8_opt_fragments_subset/singlepoint_1_CO2 time=75.0 free_energy=-1400.885518520806 pbc="T T T"
C        0.10247413      -0.35413162       0.02955241      -1.83855332      -0.29839531       0.87757912       0.23352879       0.26061252      -0.05704931
O       -0.91444595      -0.83319870      -0.30715760      -2.08417673       2.55486654       0.25526418       0.07702864      -0.25298340      -0.01640616
O        1.27605314       0.07356840       0.19940746       1.68988528      -3.88760954      -0.95500563      -0.06940344       0.38678904      -0.12343219
C        3.72177196       0.92123283       0.29189910       0.15343965       0.52876462      -1.51318525       0.03636260      -0.10547207      -0.00390419
C        3.75734936      -0.16959834      -0.27811935       1.44381214       1.35348321       0.93143407      -0.12945900      -0.05127847      -0.00541769
H        3.35625501       1.79377526      -0.28736738       0.26506352      -0.26867612       0.02566434      -0.23026684      -0.31136405       0.04242442
H        3.70578764       1.05046922       1.38811097       0.02570512       0.34873588      -0.01762559       0.00237292       0.17174721      -0.01868189
H        1.08322835       1.09532586       0.30996912      -0.21608860      -0.61541799       0.19152878       0.15564704      -0.01537292       0.15237329
H        3.68064968      -1.19888390      -0.59195398       0.56091295       0.28424870       0.20434599      -0.07581072      -0.08267786       0.03009373
9
Lattice="13.0 0.0 0.0 0.0 9.0 0.0 0.0 0.0 9.0" Properties=species:S:1:pos:R:3:momenta:R:3:forces:R:3 EPS_SCF=1e-06 energy=-1400.885518520806 units=gap_units Integrated_spin_density=6.55109e-05 opt_dir=/home/tks32/dft_pbe/apr_8_opt_fragments_subset/singlepoint_1_CO2 time=80.0 free_energy=-1400.885518520806 pbc="T T T"
C        0.15355267      -0.36427259       0.04224715      -1.36672954       0.29250451       1.18231179       0.23352879       0.26061252      -0.05704931
O       -0.88908962      -0.82001689      -0.25939807      -2.33104910       2.24147585      -0.23481948       0.07702864      -0.25298340      -0.01640616
O        1.30465511       0.10561129       0.22256872       0.64134512      -4.72294985      -1.30746574      -0.06940344       0.38678904      -0.12343219
C        3.72792450       0.97604685       0.23689463       0.15158964       0.05431986      -1.15807019       0.03636260      -0.10547207      -0.00390419
C        3.81345714      -0.13636623      -0.29272163       1.75264757       0.90581415       1.76786937      -0.12945900      -0.05127847      -0.00541769
H        3.33656738       1.81642377      -0.36945929      -0.02391389       0.62477612      -0.16047811      -0.23026684      -0.31136405       0.04242442
H        3.72117931       1.15103461       1.32727860       0.69790974       0.32458330      -0.29454857       0.00237292       0.17174721      -0.01868189
H        1.03891117       1.10019990       0.45642621       0.18112917      -0.03781994       0.23061306       0.15564704      -0.01537292       0.15237329
H        3.94635592      -1.17673504      -0.58286074       0.29707128       0.31729599      -0.02541212      -0.07581072      -0.08267786       0.03009373
9
Lattice="13.0 0.0 0.0 0.0 9.0 0.0 0.0 0.0 9.0" Properties=species:S:1:pos:R:3:momenta:R:3:forces:R:3 EPS_SCF=1e-06 energy=-1400.885518520806 units=gap_units Integrated_spin_density=6.55109e-05 opt_dir=/home/tks32/dft_pbe/apr_8_opt_fragments_subset/singlepoint_1_CO2 time=85.0 free_energy=-1400.885518520806 pbc="T T T"
C        0.22422220      -0.35144959       0.02442200      -0.63077404       0.31919694       1.47591940       0.23352879       0.26061252      -0.05704931
O       -0.86337192      -0.77217383      -0.13136869      -3.23302443       2.06091676      -0.54916870       0.07702864      -0.25298340      -0.01640616