9
Lattice="13.0 0.0 0.0 0.0 9.0 0.0 0.0 0.0 9.0" Properties=species:S:1:pos:R:3:momenta:R:3:forces:R:3 EPS_SCF=1e-06 energy=-1401.8498565404752 units=gap_units Integrated_spin_density=6.55109e-05 opt_dir=/home/tks32/dft_pbe/apr_8_opt_fragments_subset/singlepoint_1_CO2 time=0.0 free_energy=-1401.8498565404752 pbc="T T T"
C        0.00005179       0.00003613      -0.00008682       5.45409721       0.81308744      -0.21939016      -0.71616738       0.08149990       0.07809224
O       -0.13249936      -1.12387930      -0.32607516       6.91856637       1.60105312       0.69227000      -0.00977911       0.19278933       0.11863095
O        0.13246048       1.12385218       0.32614034       6.44529771      -2.41414056      -0.47287984       0.60777930      -0.29930868      -0.09183242
C        4.52496189       0.32653158       0.25008054      -5.69597901       0.88593916       0.41407752       0.57584133       0.68705914       0.43457040
C        3.47503812      -0.32653161      -0.25008061      -6.07650281      -1.32504139       0.17494715      -0.90079645      -1.10620546      -0.51939980
H        4.40543032       1.17877744       0.91904030      -0.67682574      -0.05175688      -0.30347750      -0.24543084       0.30760741       0.29124826
H        5.54824592       0.03641898       0.01166389      -0.20088037      -0.43346916      -0.14053191       0.55674304       0.06718708      -0.00289936
H        2.45175452      -0.03641814      -0.01166331      -0.11295227       0.37406457       0.09108301       0.27576887       0.09625598      -0.16517844
H        3.59456914      -1.17877784      -0.91904006      -0.29107960       0.55026370      -0.23609827      -0.14395874      -0.02688471      -0.14323184
9
Lattice="13.0 0.0 0.0 0.0 9.0 0.0 0.0 0.0 9.0" Properties=species:S:1:pos:R:3:momenta:R:3:forces:R:3 EPS_SCF=1e-06 energy=-1401.853141507274 units=gap_units Integrated_spin_density=6.55109e-05 opt_dir=/home/tks32/dft_pbe/apr_8_opt_fragments_subset/singlepoint_1_CO2 time=0.25 free_energy=-1401.853141507274 pbc="T T T"
C        0.00925142       0.00178088      -0.00045435       4.51465135       0.86592233      -0.18251434      -0.74283786      -0.28601080      -0.01652750
O       -0.12386702      -1.12147669      -0.32510159       5.55117632       1.56588834       0.67735597       0.05682592       0.03757058       0.05573239
O        0.14043248       1.12024437       0.32539635       5.24201545      -2.33125905      -0.48381167       0.75327430       0.20370333       0.04852031
C        4.51130704       0.32832097       0.25099163      -6.66855416       0.91033153       0.46880624       0.87541460       0.32904959       0.14146802
C        3.46061924      -0.32936023      -0.24973802      -7.03777164      -1.42708831       0.12487120      -0.85000322      -0.86389508      -0.38071404
H        4.38677876       1.17779166       0.91170158      -0.77290720      -0.03308234      -0.30693919      -0.19914876       0.48086299       0.44121821
H        5.54165794       0.02594637       0.00836022      -0.26736657      -0.43213330      -0.13251135       0.21591062       0.23686233       0.13348203
H        2.44734781      -0.02733180      -0.00929940      -0.18656047       0.35536636       0.09884459       0.06324500       0.11070025      -0.14055265
H        3.58556846      -1.16568371      -0.92496453      -0.37468308       0.52605444      -0.26410145      -0.17268060      -0.24884319      -0.28262678
9
Lattice="13.0 0.0 0.0 0.0 9.0 0.0 0.0 0.0 9.0" Properties=species:S:1:pos:R:3:momenta:R:3:forces:R:3 EPS_SCF=1e-06 energy=-1401.8464785774197 units=gap_units Integrated_spin_density=6.55109e-05 opt_dir=/home/tks32/dft_pbe/apr_8_opt_fragments_subset/singlepoint_1_CO2 time=0.5 free_energy=-1401.8464785774197 pbc="T T T"
C        0.01837245       0.00361543      -0.00084976       4.42350746       0.93784027      -0.22353840      -0.76931163      -0.66388991      -0.11317000
O       -0.11528747      -1.11911571      -0.32401825       5.62375742       1.52357562       0.72574406       0.11422056      -0.11368218      -0.00646499
O        0.14851559       1.11672448       0.32473426       5.24918858      -2.28046271      -0.36063046       0.86872519       0.71921512       0.19211148
C        4.49771937       0.33016192       0.25186160      -6.58877850       0.89902480       0.38761180       1.15785854      -0.03935019      -0.15104859
C        3.44618060      -0.33231235      -0.24946321      -7.09532653      -1.46222497       0.13660616      -0.77532235      -0.64555461      -0.25351965
H        4.36787676       1.17706708       0.90425875      -0.76960315      -0.02334412      -0.31013914      -0.15231887       0.65531976       0.59080368
H        5.53482422       0.01551325       0.00502261      -0.28773258      -0.42884428      -0.14241180      -0.10139426       0.40360375       0.26390834
H        2.44279699      -0.01909971      -0.00731084      -0.19762127       0.31933241       0.07836969      -0.15158966       0.13372790      -0.11052379
H        3.57665405      -1.15298331      -0.93178821      -0.35739143       0.51510299      -0.29161191      -0.19086752      -0.44938962      -0.41209648
9
Lattice="13.0 0.0 0.0 0.0 9.0 0.0 0.0 0.0 9.0" Properties=species:S:1:pos:R:3:momenta:R:3:forces:R:3 EPS_SCF=1e-06 energy=-1401.830562784715 units=gap_units Integrated_spin_density=6.55109e-05 opt_dir=/home/tks32/dft_pbe/apr_8_opt_fragments_subset/singlepoint_1_CO2 time=0.75 free_energy=-1401.830562784715 pbc="T T T"
C        0.02733969       0.00545359      -0.00142620       4.34800200       0.89804009      -0.28980181      -0.78797261      -1.03682472      -0.20649258
O       -0.10659973      -1.11681752      -0.32286915       5.66934245       1.48671764       0.76693950       0.15982488      -0.27092261      -0.07125996
O        0.15661545       1.11322310       0.32416460       5.29656989      -2.30931929      -0.36049707       0.96017467       1.24042539       0.33690509
C        4.48419455       0.33212076       0.25271697      -6.58286805       1.01346788       0.41563842       1.41848290      -0.41613384      -0.44062367
C        3.43165092      -0.33531301      -0.24916469      -7.12486478      -1.50725728       0.12361856      -0.68265280      -0.44687998      -0.13507955
H        4.34945471       1.17673114       0.89684260      -0.75474942      -0.00722542      -0.29235945      -0.11013203       0.83112002       0.73883294
H        5.52782885       0.00517163       0.00204045      -0.29691789      -0.41227476      -0.11565014      -0.39686975       0.56464937       0.38612154
H        2.43777582      -0.01087558      -0.00588474      -0.20928683       0.35447301       0.03969758      -0.35937283       0.16139381      -0.07838796
H        3.56807700      -1.14092188      -0.93889341      -0.34522737       0.48337812      -0.28758558      -0.20148243      -0.62682743      -0.53001586
9
Lattice="13.0 0.0 0.0 0.0 9.0 0.0 0.0 0.0 9.0" Properties=species:S:1:pos:R:3:momenta:R:3:forces:R:3 EPS_SCF=1e-06 energy=-1401.8070900491755 units=gap_units Integrated_spin_density=6.55109e-05 opt_dir=/home/tks32/dft_pbe/apr_8_opt_fragments_subset/singlepoint_1_CO2 time=1.0 free_energy=-1401.8070900491755 pbc="T T T"
C        0.03623791       0.00729190      -0.00192878       4.33379230       0.85202192      -0.22813873      -0.81150355      -1.42441597      -0.30617401
O       -0.09793585      -1.11454172      -0.32170044       5.68534428       1.50966954       0.73141744       0.19302939      -0.43047360      -0.13568442
O        0.16477460       1.10966617       0.32359840       5.35278514      -2.29325472      -0.34703573       1.03688060       1.78035087       0.48871193
C        4.47088644       0.33415081       0.25354078      -6.49319712       0.97275051       0.38506449       1.63794139      -0.77819499      -0.70970603
C        3.41701494      -0.33836308      -0.24894344      -7.19264930      -1.48450644       0.09409432      -0.56899382      -0.25673259      -0.01772384
H        4.33055067       1.17707277       0.88979965      -0.79598878       0.03390291      -0.28193947      -0.06592477       0.98773189       0.86949274
H        5.52046606      -0.00491657      -0.00038016      -0.31185103      -0.41557069      -0.08813917      -0.65869152       0.71712952       0.49794926
H        2.43231444      -0.00229538      -0.00495665      -0.24178677       0.34712648       0.04521078      -0.55752186       0.19174938      -0.04621524
H        3.55973425      -1.12917177      -0.94638500      -0.33644872       0.47786049      -0.31053392      -0.20521585      -0.78714452      -0.64065039
9
Lattice="13.0 0.0 0.0 0.0 9.0 0.0 0.0 0.0 9.0" Properties=species:S:1:pos:R:3:momenta:R:3:forces:R:3 EPS_SCF=1e-06 energy=-1401.7769683861522 units=gap_units Integrated_spin_density=6.55109e-05 opt_dir=/home/tks32/dft_pbe/apr_8_opt_fragments_subset/singlepoint_1_CO2 time=1.25 free_energy=-1401.7769683861522 pbc="T T T"
C        0.04512806       0.00896871      -0.00229692       4.37196269       0.74891089      -0.18399681      -0.83437734      -1.79194056      -0.40381870
O       -0.08919615      -1.11224889      -0.32063118       5.67962104       1.47877621       0.68825243       0.21309669      -0.60337238      -0.20207241
O        0.17299726       1.10617421       0.32300689       5.36832888      -2.22766619      -0.37999231       1.10116990       2.31447760       0.64170882
C        4.45766712       0.33611118       0.25431844      -6.44373076       0.94368414       0.36756104       1.81807410      -1.11379874      -0.94951126
C        3.40227437      -0.34131803      -0.24878409      -7.23192865      -1.39196307       0.06701365      -0.45023243      -0.06831099       0.10704653
H        4.31083551       1.17799138       0.88337543      -0.82153068       0.04627033      -0.24952269      -0.01686183       1.11572222       0.97530896
H        5.51267354      -0.01505608      -0.00233346      -0.33227786      -0.40789367      -0.07187413      -0.89280240       0.86386253       0.60075828
H        2.42617752       0.00619560      -0.00345766      -0.25488078       0.34230998       0.07218010      -0.73573939       0.22154865      -0.01801889
H        3.55138056      -1.11753864      -0.95386778      -0.33556389       0.46757136      -0.30962128      -0.20232729      -0.93818833      -0.75140132
9
Lattice="13.0 0.0 0.0 0.0 9.0 0.0 0.0 0.0 9.0" Properties=species:S:1:pos:R:3:momenta:R:3:forces:R:3 EPS_SCF=1e-06 energy=-1401.7429346250117 units=gap_units Integrated_spin_density=6.55109e-05 opt_dir=/home/tks32/dft_pbe/apr_8_opt_fragments_subset/singlepoint_1_CO2 time=1.5 free_energy=-1401.7429346250117 pbc="T T T"
C        0.05397887       0.01054827      -0.00266331       4.30660546       0.78609212      -0.16100514      -0.83510962      -2.14230435      -0.49573555
O       -0.08039395      -1.11000518      -0.31965448       5.74425729       1.47255377       0.58176450       0.22111280      -0.78048500      -0.26889895
O        0.18131919       1.10277530       0.32249580       5.44786363      -2.20011940      -0.31201968       1.15802707       2.84057635       0.79421452
C        4.44454297       0.33805542       0.25502974      -6.38439830       0.93451878       0.37811987       1.95248896      -1.41840942      -1.15758889
C        3.38736330      -0.34425475      -0.24866086      -7.31664532      -1.44893175       0.02503779      -0.30920793       0.10214735       0.22209154
H        4.29052282       1.17952120       0.87778191      -0.83384651       0.08109329      -0.20307574       0.01560919       1.20371585       1.04862653
H        5.50454356      -0.02493909      -0.00366306      -0.34030737      -0.40868091      -0.05298938      -1.10081572       1.00292986       0.69330862
H        2.41973931       0.01470016      -0.00147708      -0.27346200       0.35440568       0.09277020      -0.90392423       0.25338695       0.00903311
H        3.54306220      -1.10635003      -0.96189370      -0.35006689       0.42906842      -0.34860240      -0.19818052      -1.06155761      -0.84505092
9
Lattice="13.0 0.0 0.0 0.0 9.0 0.0 0.0 0.0 9.0" Properties=species:S:1:pos:R:3:momenta:R:3:forces:R:3 EPS_SCF=1e-06 energy=-1401.7077257811056 units=gap_units Integrated_spin_density=6.55109e-05 opt_dir=/home/tks32/dft_pbe/apr_8_opt_fragments_subset/singlepoint_1_CO2 time=1.75 free_energy=-1401.7077257811056 pbc="T T T"
C        0.06278218       0.01214367      -0.00305031       4.29951513       0.75991881      -0.21318954      -0.81995806      -2.50888608      -0.59295239
O       -0.07158776      -1.10777280      -0.31877965       5.75038196       1.41267490       0.58387210       0.21909416      -0.95499790      -0.33438297
O        0.18972010       1.09946346       0.32204956       5.50185735      -2.10896926      -0.28074256       1.21397628       3.38175421       0.95291823
C        4.43150705       0.33989067       0.25583600      -6.35829161       0.86625942       0.38873798       2.03842673      -1.68882687      -1.33687781
C        3.37239916      -0.34723987      -0.24863380      -7.33080154      -1.43680801      -0.00290058      -0.15929430       0.25917693       0.32827129
H        4.27024959       1.18185970       0.87304424      -0.83832851       0.10412295      -0.17876883       0.03675194       1.24931067       1.08890296
H        5.49604616      -0.03436691      -0.00471489      -0.36156560      -0.36195864      -0.03019268      -1.28382429       1.13246112       0.77696132
H        2.41267004       0.02323409       0.00066696      -0.29584672       0.34652513       0.08513273      -1.04911764       0.28347906       0.03339330
H        3.53453265      -1.09597032      -0.97036879      -0.36692047       0.41823469      -0.35194864      -0.19605483      -1.15347114      -0.91623394
9
Lattice="13.0 0.0 0.0 0.0 9.0 0.0 0.0 0.0 9.0" Properties=species:S:1:pos:R:3:momenta:R:3:forces:R:3 EPS_SCF=1e-06 energy=-1401.6746215812348 units=gap_units Integrated_spin_density=6.55109e-05 opt_dir=/home/tks32/dft_pbe/apr_8_opt_fragments_subset/singlepoint_1_CO2 time=2.0 free_energy=-1401.6746215812348 pbc="T T T"
C        0.07149641       0.01355648      -0.00352211       4.18961870       0.58808281      -0.21318432      -0.79890505      -2.84338816      -0.68243680
O       -0.06268844      -1.10560951      -0.31788300       5.83658565       1.45276544       0.57954698       0.20674923      -1.14170949      -0.40303280
O        0.19805930       1.09635045       0.32172610       5.41636925      -1.94633903      -0.19699841       1.26652863       3.89976846       1.10538090
C        4.41866123       0.34159685       0.25663469      -6.24674736       0.78628328       0.40527052       2.06040657      -1.91621692      -1.48368732
C        3.35741848      -0.35016762      -0.24868033      -7.31324149      -1.43031665      -0.05102324       0.01704591       0.38986945       0.41079465
H        4.24954344       1.18496610       0.86889420      -0.85381452       0.13773793      -0.15637603       0.06415122       1.25600432       1.09991196
H        5.48686769      -0.04281089      -0.00541393      -0.38501136      -0.32317112      -0.01488909      -1.43157696       1.24656717       0.84923773
H        2.40537238       0.03182264       0.00211948      -0.28824680       0.35728396       0.04430368      -1.18585879       0.31792362       0.06089582
H        3.52584041      -1.08642590      -0.97941073      -0.35551208       0.37767338      -0.39665010      -0.19854076      -1.20881845      -0.95706415
9
Lattice="13.0 0.0 0.0 0.0 9.0 0.0 0.0 0.0 9.0" Properties=species:S:1:pos:R:3:momenta:R:3:forces:R:3 EPS_SCF=1e-06 energy=-1401.6429184971296 units=gap_units Integrated_spin_density=6.55109e-05 opt_dir=/home/tks32/dft_pbe/apr_8_opt_fragments_subset/singlepoint_1_CO2 time=2.25 free_energy=-1401.6429184971296 pbc="T T T"
C        0.07999987       0.01468777      -0.00390626       4.13365533       0.52756637      -0.19174367      -0.77316230      -3.12602149      -0.76129000
O       -0.05369840      -1.10338807      -0.31700353       5.88227373       1.42713667       0.58526207       0.10527655      -1.37436738      -0.47926072
O        0.20637604       1.09339723       0.32137679       5.40381529      -1.91623751      -0.18947308       1.31618833       4.39038091       1.25076946
C        4.40597175       0.34323777       0.25748658      -6.16788280       0.80913130       0.38719783       2.02795467      -2.11558945      -1.60930692
C        3.34248005      -0.35313282      -0.24876825      -7.30404468      -1.44499973      -0.05385651       0.29465800       0.51563195       0.47055922
H        4.22848208       1.18851622       0.86536849      -0.85669304       0.15676285      -0.14502864       0.10089161       1.23511337       1.09128083
H        5.47723279      -0.05035992      -0.00566235      -0.40903429      -0.29284013      -0.00812872      -1.55326545       1.34819090       0.91221608
H        2.39796404       0.04064600       0.00308796      -0.32156456       0.36857570       0.04240040      -1.31139898       0.35361898       0.08955705
H        3.51713191      -1.07733595      -0.98954558      -0.36052498       0.36490448      -0.42662969      -0.20714242      -1.22695779      -0.96452500
9
Lattice="13.0 0.0 0.0 0.0 9.0 0.0 0.0 0.0 9.0" Properties=species:S:1:pos:R:3:momenta:R:3:forces:R:3 EPS_SCF=1e-06 energy=-1401.610861026154 units=gap_units Integrated_spin_density=6.55109e-05 opt_dir=/home/tks32/dft_pbe/apr_8_opt_fragments_subset/singlepoint_1_CO2 time=2.5 free_energy=-1401.610861026154 pbc="T T T"
C        0.08847905       0.01580218      -0.00430234       4.17807899       0.52934788      -0.22474365      -0.75272338      -3.41667890      -0.84477266
O       -0.04468748      -1.10125185      -0.31607230       5.84352021       1.35145760       0.59748498      -0.00391524      -1.60291551      -0.55354032
O        0.21467652       1.09054190       0.32108740       5.42777654      -1.80033825      -0.12946297       1.28759567       4.91594325       1.41014042
C        4.39338899       0.34485097       0.25821096      -6.17783685       0.76208619       0.30815174       1.93697761      -2.28761473      -1.71330543
C        3.32753480      -0.35616564      -0.24887372      -7.30129467      -1.48476490      -0.02481376       0.65801780       0.59817263       0.50155331
H        4.20764117       1.19260156       0.86239366      -0.84839327       0.17909126      -0.09262572       0.15095118       1.18814002       1.06422044
H        5.46664526      -0.05728951      -0.00555841      -0.45737041      -0.27216046       0.00500138      -1.64270052       1.43665872       0.96474424
H        2.39011765       0.04989998       0.00400195      -0.33269415       0.39376651       0.03145555      -1.41220640       0.38301859       0.11391271
H        3.50861930      -1.06869523      -1.00043106      -0.33178640       0.34151417      -0.47044754      -0.22199672      -1.21472409      -0.94295272
9
Lattice="13.0 0.0 0.0 0.0 9.0 0.0 0.0 0.0 9.0" Properties=species:S:1:pos:R:3:momenta:R:3:forces:R:3 EPS_SCF=1e-06 energy=-1401.5801984752313 units=gap_units Integrated_spin_density=6.55109e-05 opt_dir=/home/tks32/dft_pbe/apr_8_opt_fragments_subset/singlepoint_1_CO2 time=2.75 free_energy=-1401.5801984752313 pbc="T T T"
C        0.09702314       0.01686644      -0.00481912       4.17001799       0.50555513      -0.29928277      -0.73845567      -3.69928270      -0.92747424
O       -0.03577921      -1.09924455      -0.31510312       5.79300592       1.28292953       0.66094636      -0.10609998      -1.82107268      -0.62483879
O        0.22300752       1.08784587       0.32089579       5.42695216      -1.71508940      -0.16039782       1.25503251       5.42155530       1.56310344
C        4.38087750       0.34637109       0.25874811      -6.07604543       0.73622570       0.23891223       1.80284761      -2.42003622      -1.78726079
C        3.31262211      -0.35914922      -0.24886073      -7.26935553      -1.47215045       0.07942114       0.99432393       0.65354207       0.49534320
H        4.18734114       1.19722999       0.86039111      -0.82759227       0.20469051      -0.07176587       0.21989274       1.10701123       1.01368983
H        5.45518385      -0.06386967      -0.00535653      -0.48272034      -0.25850184       0.00970458      -1.70654487       1.51521115       1.00951345
H        2.38143234       0.05985383       0.00488434      -0.38066155       0.41327128       0.03768695      -1.47391916       0.39942967       0.13072352
H        3.50041333      -1.06100904      -1.01225220      -0.35360095       0.30306953      -0.49522480      -0.24707712      -1.15635782      -0.87279962
9
Lattice="13.0 0.0 0.0 0.0 9.0 0.0 0.0 0.0 9.0" Properties=species:S:1:pos:R:3:momenta:R:3:forces:R:3 EPS_SCF=1e-06 energy=-1401.5505682422906 units=gap_units Integrated_spin_density=6.55109e-05 opt_dir=/home/tks32/dft_pbe/apr_8_opt_fragments_subset/singlepoint_1_CO2 time=3.0 free_energy=-1401.5505682422906 pbc="T T T"
C        0.10543378       0.01783904      -0.00539828       4.07138753       0.41386169      -0.24725092      -0.72950985      -3.96429592      -1.00782828
O       -0.02687552      -1.09733561      -0.31416416       5.81442161       1.19913423       0.56414338      -0.20010234      -2.03571284      -0.69468309
O        0.23137509       1.08530860       0.32064152       5.46339130      -1.55894459      -0.17210227       1.21590921       5.90540747       1.70951904
C        4.36863508       0.34780986       0.25919202      -5.92234737       0.68982411       0.20405339       1.60892804      -2.52755940      -1.84248447
C        3.29771965      -0.36211775      -0.24861166      -7.30574219      -1.44656198       0.13345850       1.30949159       0.71403671       0.47981591
H        4.16708582       1.20239238       0.85856735      -0.84230628       0.21153957      -0.06415624       0.30427320       1.00629956       0.94965096
H        5.44267225      -0.06969705      -0.00467634      -0.51883287      -0.21330493       0.04821430      -1.73761583       1.57895576       1.04365547
H        2.37174098       0.06988827       0.00577954      -0.40903545       0.41494358       0.02540587      -1.49353444       0.40290776       0.14159045
H        3.49197279      -1.05376668      -1.02422724      -0.35093626       0.28950832      -0.49176601      -0.27783958      -1.08003911      -0.77923599
9
Lattice="13.0 0.0 0.0 0.0 9.0 0.0 0.0 0.0 9.0" Properties=species:S:1:pos:R:3:momenta:R:3:forces:R:3 EPS_SCF=1e-06 energy=-1401.5220885034048 units=gap_units Integrated_spin_density=6.55109e-05 opt_dir=/home/tks32/dft_pbe/apr_8_opt_fragments_subset/singlepoint_1_CO2 time=3.25 free_energy=-1401.5220885034048 pbc="T T T"
C        0.11363765       0.01859962      -0.00595275       3.98846765       0.36667700      -0.31453285      -0.72452774      -4.17071074      -1.07417303
O       -0.01792512      -1.09552255      -0.31333510       5.87043312       1.18544800       0.58774662      -0.28513824      -2.25225620      -0.76441099
O        0.23981071       1.08302513       0.32045125       5.47878097      -1.43718558      -0.10971730       1.16608745       6.33389125       1.83978383
C        4.35661581       0.34921734       0.25958359      -5.86553347       0.67611689       0.16215377       1.36246008      -2.61227798      -1.88042212
C        3.28280276      -0.36512104      -0.24832626      -7.26185924      -1.49663806       0.12326106       1.61792077       0.78698138       0.46054625
H        4.14652450       1.20814458       0.85723996      -0.84263021       0.23927275      -0.04596284       0.40310599       0.87924985       0.86712579
H        5.42975980      -0.07468029      -0.00335870      -0.54967952      -0.19134154       0.06872571      -1.75087699       1.63198940       1.06985688
H        2.36124125       0.08003009       0.00616386      -0.45437411       0.40686938       0.02092184      -1.47648184       0.39434678       0.14823068
H        3.48320286      -1.04725874      -1.03620048      -0.36360520       0.25078115      -0.49259602      -0.31254947      -0.99121374      -0.66653729
9
Lattice="13.0 0.0 0.0 0.0 9.0 0.0 0.0 0.0 9.0" Properties=species:S:1:pos:R:3:momenta:R:3:forces:R:3 EPS_SCF=1e-06 energy=-1401.4953038982744 units=gap_units Integrated_spin_density=6.55109e-05 opt_dir=/home/tks32/dft_pbe/apr_8_opt_fragments_subset/singlepoint_1_CO2 time=3.5 free_energy=-1401.4953038982744 pbc="T T T"
C        0.12166928       0.01928625      -0.00658825       3.89344884       0.29938357      -0.30897084      -0.72859067      -4.34062419      -1.13106245
O       -0.00894925      -1.09373623      -0.31249760       5.84210656       1.17843564       0.51267595      -0.35903077      -2.47105252      -0.83565029
O        0.24837257       1.08088355       0.32036629       5.60277883      -1.34580987      -0.02280931       1.10793215       6.73101547       1.96112580
C        4.34456289       0.35054954       0.25978870      -5.88845332       0.61667493       0.05126415       1.08460155      -2.66053488      -1.89098654
C        3.26809365      -0.36814305      -0.24802373      -7.15484466      -1.47536498       0.16788209       1.88495987       0.86407978       0.42947023
H        4.12615790       1.21445260       0.85643434      -0.82696276       0.25524712      -0.02141940       0.51117807       0.72864822       0.76800207
H        5.41561055      -0.07886724      -0.00135831      -0.60774800      -0.15312151       0.09318015      -1.73304239       1.67070810       1.08534568
H        2.34987349       0.08978225       0.00666390      -0.47200425       0.41295080       0.02132009      -1.41774100       0.36783170       0.14758138
H        3.47391250      -1.04153969      -1.04831590      -0.38832124       0.21160430      -0.49312288      -0.35026681      -0.89007168      -0.53382589
9
Lattice="13.0 0.0 0.0 0.0 9.0 0.0 0.0 0.0 9.0" Properties=species:S:1:pos:R:3:momenta:R:3:forces:R:3 EPS_SCF=1e-06 energy=-1401.4706458709281 units=gap_units Integrated_spin_density=6.55109e-05 opt_dir=/home/tks32/dft_pbe/apr_8_opt_fragments_subset/singlepoint_1_CO2 time=3.75 free_energy=-1401.4706458709281 pbc="T T T"
C        0.12960879       0.01977976      -0.00713684       3.90783187       0.20039047      -0.27994733      -0.73895941      -4.44044551      -1.17043571
O        0.00009724      -1.09189440      -0.31176507       5.85558619       1.16401054       0.45744955      -0.42173175      -2.70167392      -0.90918528
O        0.25689706       1.07901045       0.32037491       5.54821871      -1.08643889       0.02668139       1.03815763       7.07367596       2.06668902
C        4.33258394       0.35161756       0.25984910      -5.83299239       0.42936460       0.02675040       0.77170036      -2.67860030      -1.88202088
C        3.25348987      -0.37123408      -0.24768591      -7.12802419      -1.50252641       0.16486986       2.11308188       0.95192544       0.38834684
H        4.10618246       1.22092586       0.85608610      -0.80036089       0.27275814      -0.00708530       0.62442673       0.56456464       0.66003844
H        5.40017053      -0.08195409       0.00103024      -0.66119154      -0.10973744       0.10895021      -1.67895103       1.69069814       1.09026619
H        2.33767994       0.09994994       0.00708001      -0.52919457       0.42078882       0.01446190      -1.31343506       0.31655096       0.13653165
H        3.46478109      -1.03637240      -1.06074427      -0.35987319       0.21139019      -0.51213069      -0.39428935      -0.77669540      -0.38023027
9
Lattice="13.0 0.0 0.0 0.0 9.0 0.0 0.0 0.0 9.0" Properties=species:S:1:pos:R:3:momenta:R:3:forces:R:3 EPS_SCF=1e-06 energy=-1401.4474623351223 units=gap_units Integrated_spin_density=6.55109e-05 opt_dir=/home/tks32/dft_pbe/apr_8_opt_fragments_subset/singlepoint_1_CO2 time=4.0 free_energy=-1401.4474623351223 pbc="T T T"
C        0.13751780       0.02009807      -0.00771828       3.83401644       0.10215286      -0.30272091      -0.75647870      -4.47581160      -1.19155721
O        0.00909428      -1.09023081      -0.31105501       5.85595134       1.02640977       0.45889368      -0.47036453      -2.92120069      -0.97914372
O        0.26540774       1.07748373       0.32042474       5.57674072      -0.91675655       0.05513117       0.95230845       7.34604293       2.15065098
C        4.32068648       0.35240749       0.25982861      -5.80104505       0.35788733      -0.01122505       0.43910267      -2.65851440      -1.84838987
C        3.23899482      -0.37417760      -0.24733250      -7.08094126      -1.40037582       0.12574407       2.29954060       1.04792506       0.33780985
H        4.08681982       1.22789756       0.85621413      -0.79038513       0.29900812       0.01256534       0.74239993       0.38161103       0.53951527
H        5.38383001      -0.08428219       0.00387841      -0.68298578      -0.06848502       0.13455189      -1.59750662       1.69495291       1.08629721
H        2.32452675       0.11030232       0.00742855      -0.54448456       0.42301594       0.03037325      -1.16525455       0.24058734       0.11549849
H        3.45599780      -1.03167236      -1.07316886      -0.36686672       0.17714336      -0.50331344      -0.44374724      -0.65559258      -0.21068101
9
Lattice="13.0 0.0 0.0 0.0 9.0 0.0 0.0 0.0 9.0" Properties=species:S:1:pos:R:3:momenta:R:3:forces:R:3 EPS_SCF=1e-06 energy=-1401.4236707311757 units=gap_units Integrated_spin_density=6.55109e-05 opt_dir=/home/tks32/dft_pbe/apr_8_opt_fragments_subset/singlepoint_1_CO2 time=4.25 free_energy=-1401.4236707311757 pbc="T T T"
C        0.14528112       0.02019100      -0.00842028       3.77241038       0.00749845      -0.38288433      -0.77757554      -4.43267848      -1.18917311
O        0.01804479      -1.08872986      -0.31029560       5.78982747       0.90310725       0.47199001      -0.50628410      -3.14250148      -1.05017582